# vtk DataFile Version 3.0
d-2__ created by libgimli-v1.5.0-1-g5991b6ac
ASCII
DATASET UNSTRUCTURED_GRID
POINTS 2500 double
93.677755102041	-2.1648367346939	0
95.431836734694	-2.2667755102041	0
95.431836734694	-2.1648367346939	0
35.79306122449	-1.8590204081633	0
37.547142857143	-1.8590204081633	0
37.547142857143	-1.7570816326531	0
35.79306122449	-1.7570816326531	0
35.79306122449	-1.6551428571429	0
34.038979591837	-1.6551428571429	0
34.038979591837	-1.7570816326531	0
34.038979591837	-1.5532040816327	0
35.79306122449	-1.5532040816327	0
65.612448979592	-5.223	0
63.858367346939	-5.1210612244898	0
63.858367346939	-5.223	0
65.612448979592	-5.1210612244898	0
79.645102040816	-4.9171836734694	0
79.645102040816	-4.8152448979592	0
77.891020408163	-4.9171836734694	0
77.891020408163	-4.8152448979592	0
84.907346938776	-3.9997346938776	0
83.153265306122	-3.9997346938776	0
83.153265306122	-4.1016734693878	0
84.907346938776	-4.1016734693878	0
86.661428571429	-3.8977959183673	0
84.907346938776	-3.8977959183673	0
86.661428571429	-3.9997346938776	0
23.514489795918	-0.94157142857143	0
21.760408163265	-0.83963265306122	0
21.760408163265	-0.94157142857143	0
23.514489795918	-0.83963265306122	0
12.99	-0.3299387755102	0
14.744081632653	-0.228	0
12.99	-0.228	0
14.744081632653	-0.3299387755102	0
37.547142857143	-1.9609591836735	0
35.79306122449	-2.0628979591837	0
37.547142857143	-2.0628979591837	0
35.79306122449	-1.9609591836735	0
37.547142857143	-2.1648367346939	0
35.79306122449	-2.1648367346939	0
34.038979591837	-1.8590204081633	0
35.79306122449	-2.2667755102041	0
37.547142857143	-2.3687142857143	0
37.547142857143	-2.2667755102041	0
35.79306122449	-2.3687142857143	0
34.038979591837	-2.1648367346939	0
34.038979591837	-2.0628979591837	0
34.038979591837	-2.2667755102041	0
32.284897959184	-2.1648367346939	0
32.284897959184	-2.2667755102041	0
32.284897959184	-2.0628979591837	0
20.006326530612	-5.1210612244898	0
18.252244897959	-5.223	0
20.006326530612	-5.223	0
18.252244897959	-5.1210612244898	0
14.744081632653	-5.223	0
12.99	-5.1210612244898	0
12.99	-5.223	0
14.744081632653	-5.1210612244898	0
12.99	-5.0191224489796	0
14.744081632653	-5.0191224489796	0
12.99	-4.9171836734694	0
14.744081632653	-4.9171836734694	0
12.99	-4.713306122449	0
14.744081632653	-4.713306122449	0
12.99	-4.6113673469388	0
14.744081632653	-4.6113673469388	0
16.498163265306	-5.0191224489796	0
16.498163265306	-4.9171836734694	0
56.842040816327	-3.8977959183673	0
55.087959183673	-3.8977959183673	0
55.087959183673	-3.9997346938776	0
56.842040816327	-3.9997346938776	0
58.59612244898	-3.8977959183673	0
58.59612244898	-3.9997346938776	0
58.59612244898	-4.3055510204082	0
58.59612244898	-4.203612244898	0
56.842040816327	-4.3055510204082	0
56.842040816327	-4.203612244898	0
56.842040816327	-3.4900408163265	0
58.59612244898	-3.4900408163265	0
56.842040816327	-3.3881020408163	0
58.59612244898	-3.3881020408163	0
63.858367346939	-5.0191224489796	0
65.612448979592	-5.0191224489796	0
62.104285714286	-4.9171836734694	0
62.104285714286	-4.8152448979592	0
60.350204081633	-4.9171836734694	0
60.350204081633	-4.8152448979592	0
63.858367346939	-4.8152448979592	0
63.858367346939	-4.9171836734694	0
67.366530612245	-4.1016734693878	0
65.612448979592	-3.9997346938776	0
65.612448979592	-4.1016734693878	0
67.366530612245	-3.9997346938776	0
91.923673469388	-1.7570816326531	0
91.923673469388	-1.8590204081633	0
93.677755102041	-1.7570816326531	0
93.677755102041	-1.8590204081633	0
93.677755102041	-1.9609591836735	0
91.923673469388	-1.9609591836735	0
97.185918367347	-0.53381632653061	0
98.94	-0.63575510204082	0
98.94	-0.53381632653061	0
97.185918367347	-0.63575510204082	0
98.94	-0.73769387755102	0
97.185918367347	-0.73769387755102	0
98.94	-0.83963265306122	0
97.185918367347	-0.83963265306122	0
95.431836734694	-1.7570816326531	0
95.431836734694	-1.8590204081633	0
95.431836734694	-2.0628979591837	0
93.677755102041	-2.0628979591837	0
79.645102040816	-5.0191224489796	0
77.891020408163	-5.0191224489796	0
83.153265306122	-3.8977959183673	0
86.661428571429	-4.203612244898	0
84.907346938776	-4.203612244898	0
84.907346938776	-4.3055510204082	0
86.661428571429	-4.3055510204082	0
83.153265306122	-4.3055510204082	0
81.399183673469	-4.3055510204082	0
81.399183673469	-4.4074897959184	0
83.153265306122	-4.4074897959184	0
84.907346938776	-4.4074897959184	0
83.153265306122	-4.5094285714286	0
81.399183673469	-4.5094285714286	0
81.399183673469	-4.6113673469388	0
83.153265306122	-4.6113673469388	0
84.907346938776	-4.5094285714286	0
88.415510204082	-3.8977959183673	0
88.415510204082	-3.9997346938776	0
88.415510204082	-3.6939183673469	0
86.661428571429	-3.7958571428571	0
88.415510204082	-3.7958571428571	0
86.661428571429	-3.6939183673469	0
84.907346938776	-3.5919795918367	0
83.153265306122	-3.6939183673469	0
84.907346938776	-3.6939183673469	0
83.153265306122	-3.5919795918367	0
25.268571428571	-0.228	0
27.022653061224	-0.3299387755102	0
27.022653061224	-0.228	0
25.268571428571	-0.3299387755102	0
25.268571428571	-0.43187755102041	0
27.022653061224	-0.43187755102041	0
23.514489795918	-0.43187755102041	0
23.514489795918	-0.53381632653061	0
25.268571428571	-0.53381632653061	0
34.038979591837	-2.8784081632653	0
35.79306122449	-2.8784081632653	0
35.79306122449	-2.7764693877551	0
34.038979591837	-2.7764693877551	0
35.79306122449	-2.9803469387755	0
34.038979591837	-2.9803469387755	0
34.038979591837	-3.7958571428571	0
32.284897959184	-3.8977959183673	0
34.038979591837	-3.8977959183673	0
32.284897959184	-3.7958571428571	0
25.268571428571	-1.9609591836735	0
23.514489795918	-1.8590204081633	0
23.514489795918	-1.9609591836735	0
25.268571428571	-1.8590204081633	0
25.268571428571	-0.73769387755102	0
23.514489795918	-0.73769387755102	0
25.268571428571	-0.83963265306122	0
23.514489795918	-1.3493265306122	0
25.268571428571	-1.247387755102	0
23.514489795918	-1.247387755102	0
25.268571428571	-1.3493265306122	0
25.268571428571	-0.94157142857143	0
23.514489795918	-1.0435102040816	0
25.268571428571	-1.0435102040816	0
27.022653061224	-1.0435102040816	0
27.022653061224	-0.94157142857143	0
28.776734693878	-1.0435102040816	0
28.776734693878	-0.94157142857143	0
23.514489795918	-2.7764693877551	0
21.760408163265	-2.6745306122449	0
21.760408163265	-2.7764693877551	0
23.514489795918	-2.6745306122449	0
25.268571428571	-2.6745306122449	0
25.268571428571	-2.7764693877551	0
25.268571428571	-2.8784081632653	0
23.514489795918	-2.8784081632653	0
23.514489795918	-3.8977959183673	0
25.268571428571	-3.9997346938776	0
25.268571428571	-3.8977959183673	0
23.514489795918	-3.9997346938776	0
23.514489795918	-3.7958571428571	0
25.268571428571	-3.7958571428571	0
25.268571428571	-2.5725918367347	0
23.514489795918	-2.5725918367347	0
27.022653061224	-2.6745306122449	0
27.022653061224	-2.5725918367347	0
25.268571428571	-3.1842244897959	0
27.022653061224	-3.0822857142857	0
25.268571428571	-3.0822857142857	0
27.022653061224	-3.1842244897959	0
23.514489795918	-3.0822857142857	0
23.514489795918	-3.1842244897959	0
77.891020408163	-4.4074897959184	0
76.13693877551	-4.4074897959184	0
77.891020408163	-4.5094285714286	0
76.13693877551	-4.5094285714286	0
77.891020408163	-4.3055510204082	0
76.13693877551	-4.3055510204082	0
74.382857142857	-4.713306122449	0
74.382857142857	-4.8152448979592	0
76.13693877551	-4.8152448979592	0
76.13693877551	-4.713306122449	0
76.13693877551	-5.1210612244898	0
76.13693877551	-5.223	0
77.891020408163	-5.223	0
77.891020408163	-5.1210612244898	0
76.13693877551	-5.0191224489796	0
76.13693877551	-4.9171836734694	0
76.13693877551	-4.6113673469388	0
77.891020408163	-4.6113673469388	0
77.891020408163	-4.713306122449	0
79.645102040816	-4.6113673469388	0
79.645102040816	-4.713306122449	0
67.366530612245	-4.713306122449	0
65.612448979592	-4.8152448979592	0
67.366530612245	-4.8152448979592	0
65.612448979592	-4.713306122449	0
63.858367346939	-4.713306122449	0
67.366530612245	-5.1210612244898	0
67.366530612245	-5.223	0
67.366530612245	-5.0191224489796	0
65.612448979592	-4.6113673469388	0
67.366530612245	-4.6113673469388	0
63.858367346939	-4.6113673469388	0
20.006326530612	-2.2667755102041	0
18.252244897959	-2.3687142857143	0
20.006326530612	-2.3687142857143	0
18.252244897959	-2.2667755102041	0
21.760408163265	-2.5725918367347	0
23.514489795918	-2.4706530612245	0
21.760408163265	-2.4706530612245	0
23.514489795918	-0.3299387755102	0
23.514489795918	-0.228	0
55.087959183673	-3.4900408163265	0
55.087959183673	-3.3881020408163	0
55.087959183673	-5.1210612244898	0
55.087959183673	-5.223	0
56.842040816327	-5.223	0
56.842040816327	-5.1210612244898	0
56.842040816327	-5.0191224489796	0
55.087959183673	-5.0191224489796	0
30.530816326531	-0.94157142857143	0
30.530816326531	-1.0435102040816	0
32.284897959184	-1.0435102040816	0
32.284897959184	-0.94157142857143	0
32.284897959184	-0.83963265306122	0
30.530816326531	-0.83963265306122	0
28.776734693878	-0.63575510204082	0
30.530816326531	-0.73769387755102	0
30.530816326531	-0.63575510204082	0
28.776734693878	-0.73769387755102	0
32.284897959184	-0.228	0
34.038979591837	-0.3299387755102	0
34.038979591837	-0.228	0
32.284897959184	-0.3299387755102	0
32.284897959184	-0.43187755102041	0
34.038979591837	-0.53381632653061	0
34.038979591837	-0.43187755102041	0
32.284897959184	-0.53381632653061	0
34.038979591837	-0.83963265306122	0
34.038979591837	-0.94157142857143	0
32.284897959184	-0.73769387755102	0
34.038979591837	-0.73769387755102	0
44.563469387755	-0.43187755102041	0
44.563469387755	-0.53381632653061	0
46.317551020408	-0.53381632653061	0
46.317551020408	-0.43187755102041	0
34.038979591837	-1.0435102040816	0
34.038979591837	-1.9609591836735	0
34.038979591837	-2.3687142857143	0
48.071632653061	-5.0191224489796	0
48.071632653061	-4.9171836734694	0
46.317551020408	-4.9171836734694	0
46.317551020408	-5.0191224489796	0
51.579795918367	-4.713306122449	0
53.33387755102	-4.8152448979592	0
53.33387755102	-4.713306122449	0
51.579795918367	-4.8152448979592	0
44.563469387755	-2.7764693877551	0
44.563469387755	-2.8784081632653	0
[...]
CELL_DATA 4801
SCALARS Coverage double 1
LOOKUP_TABLE default
1.5947560230607 0.94830654404199 0.93874669252527 0.89091995087758 0.91427718602539 0.88693401734013 0.9038513761452 1.6138313293778 1.2113247080736 1.5136350166772 1.5566173650753 1.4998155127345 1.4769738589793 1.5450804496429 1.6107079385975 0.64772171326887 0.6135626790216 1.209701328919 0.90040879999779 0.9642040411702 0.9546113007873 0.94992492816987 0.952774706924 0.96974507958665 0.9670559181069 0.89925964236463 0.9223523240358 0.98938697788616 0.98592789751629 0.97223757098414 0.98327090246987 0.95036368211158 0.9289869899532 0.95657767397344 0.94565211480962 0.85946596522853 0.81518697339908 0.85296397570164 0.80443294993641 0.79738827469772 0.71280105470987 0.75431349736176 0.70215704796413 0.75533999260493 0.70311497801029 0.75461475677272 0.70233743970427 0.75934786291709 0.70777244376249 0.65358677178078 0.73866048536064 0.43979576778355 0.41673060299712 0.4900714939373 0.5265561172274 0.60302373091326 0.56842570311361 0.36158812447081 0.36338117440195 1.6349576526071 1.2044721388442 1.5617947398852 1.4978948785697 1.7038644902508 1.6613960578464 0.87980170849333 0.85194070581248 1.1048521530983 1.127449251964 1.1367315611046 1.1255649341744 1.2544184772422 1.2191574070326 1.2601089782825 1.2319958802289 1.2588504613256 1.2229779628674 1.2335104883128 1.2821568062609 1.5174235491694 1.3927925663019 1.4949671142172 1.5145554545231 1.483596099485 1.4364190508727 1.7906640689135 1.8515808919449 1.5594449787945 1.5561101439513 1.5249733185982 1.5503842369636 1.4848496586646 1.5296899036284 1.5548958947284 1.5064946646618 1.4896026538724 1.5522254086201 1.6201766831356 1.649229410668 1.5013943155022 1.4551744152717 1.5360479487113 1.566308112653 1.3387298130147 1.3255614487798 0.83799683804704 0.79139890286063 0.79168702945667 0.8388859423007 0.62191371468977 0.66672032907184 1.0457144918854 1.0226621649171 1.0550584879005 1.0499721410047 1.2816132368348 1.1199177561199 0.63623656939438 0.71931152979183 0.62336500184209 0.6699443727999 0.62777756889974 0.6817763332875 0.62506985439285 0.67144041381596 0.62491928905166 0.67359637892272 0.81243546159522 0.85454417468544 0.92704728625622 0.91640828679257 0.68543437692985 0.66175866969837 0.83629718835172 0.6768024890354 0.86005602274683 0.69919065429449 1.2569206914904 0.91301122033045 0.94619960024876 1.2765806007064 0.80675695965914 0.66903089119161 1.0461409107622 1.0536165219706 1.181380638495 1.2097968196123 0.97106178579496 0.73088781545393 1.6684027956804 1.60006287297 1.6551117860196 1.5700974141823 1.5414111104544 1.5827082004092 1.5222514200665 1.5011303103529 1.5017976691443 1.5316259654698 1.5083835599127 1.5639178858791 1.5073876072751 1.5382695368199 1.6108960012235 1.5516807773206 1.5247985912337 1.5878198544483 1.5832442234409 1.5121254743665 1.6439635646583 1.6192295442656 1.5726535786539 1.5828356183699 1.257121269727 1.1845563618395 1.7413768810584 1.131097419757 1.2103130107577 1.2011917163468 1.1983929620524 1.2168328890543 1.1740445537632 1.2255562840945 1.1570204606222 1.6130267341225 0.63486078321704 0.68480882457231 0.61192747720806 0.62425239954972 0.65652141309118 0.63663792244478 0.62162371451008 0.66591517298609 0.66615299691602 0.62191798941692 0.36085664859998 0.44919933854599 1.1510299479423 0.94836799691578 0.94655778517591 1.1122103609554 0.8745275189007 0.84780532048551 0.75465463384913 0.74424205469978 0.74421419887171 0.75581146555442 0.8422205607559 0.86766674751957 0.7828823019377 0.76146241723059 0.78372536018036 0.76220565979798 0.76156284554688 0.78325120845572 0.76561468361072 0.7898084812827 0.76497645905174 0.78737095499308 0.74507509717239 0.75612480167702 0.8758779779465 0.8752720203134 0.79161320991307 0.76797432517675 0.9364025741597 0.92331826183204 0.93103786562992 0.90853510780478 0.97363278149744 0.95196383134829 1.7070554939095 1.7291452074613 1.0636491225398 1.1081049767538 1.0089815282107 1.0082075542522 1.102183707813 1.1134355870856 1.7171953824842 1.7803963133814 1.7687120837352 1.7093477094807 1.7937177958082 1.7182595196892 1.7236125422858 1.7418433208741 1.8751034576368 1.9359560153896 1.8499920741292 1.9543809082796 1.7524100079523 1.7354537387689 1.7353667272321 1.7378433509326 1.1057283669307 0.87004223406249 0.75390858095858 0.71905582585541 0.8771512608864 0.94711930395035 0.72084727192183 1.0239931552444 1.1489292386081 0.8431798717022 1.2038833280964 0.87830429703975 0.91698960819859 1.2380929494206 0.79740287283253 0.88491494529972 0.79869704156125 0.70432464678814 0.75634991423323 0.70413563264994 0.70504796602394 0.75751417247867 0.76100600391228 0.71031654007433 0.76360644797201 0.71805555346997 0.77123565703314 0.74230492313514 0.78644879674241 0.80095010000222 0.78086120265731 0.7806716965222 0.80154273896513 0.78642841687666 0.73583345053556 0.65253506229563 0.65287494304154 0.73692614988748 0.37225853339439 0.44717703314977 0.36381583542819 0.44646998442747 0.34488102714071 0.43838433251005 0.2943618455846 0.28108646418493 1.0681497589438 0.98638375880706 0.28145825449688 0.29652646212955 0.28806985400427 0.28011199545458 0.65215808196212 0.63759983232023 0.70931938134198 0.68661300394847 1.1668271076146 1.0104058669952 1.6773136728866 1.6104663102024 1.5808356780004 1.5289723677505 1.5448206792172 1.560674671113 1.6607356366186 1.6121219579744 1.5060726006987 1.4114390125474 1.544354141117 1.4452176901913 1.0490655317504 0.89764583273376 0.66770773959619 0.65207623044486 1.1754976022528 1.2801005430912 0.38685251824351 0.49876519927648 1.6667244547323 1.6802814313646 1.1726545320954 1.1255842928839 1.3054480476754 1.3144741768849 1.6421697395594 1.7330199303817 1.4741084239522 1.5199833937264 1.4416714788424 1.412253945446 1.6783693436625 1.5440223040234 1.4960655875314 1.3625589920956 1.1127983569523 1.0962622867124 1.2222032552626 1.2534794937565 1.1388934102898 1.1822420160645 1.1909634190219 1.1564401306081 1.2191716860287 1.2674039639192 1.213235412154 1.2041568639258 1.3677659671554 1.4119669981179 1.329433315658 1.3347359127105 1.172403340148 1.1561168933907 1.2502176641523 1.2853363627363 1.3881234305509 1.3614922015453 1.5433740453822 1.6985892440995 1.4950453482191 1.4920382229783 1.5081997060725 1.4230749328958 1.4066017255431 1.4554199327773 1.3034246549127 1.2889334135866 1.3149670997293 1.3043159439006 1.2536049676208 1.2142276901319 1.4904283894501 1.5948309938655 1.2953747111451 1.3141429079178 1.4128628157514 1.3339313621813 1.1033743034134 1.1602898774592 1.1619172349191 1.1076090446812 1.2108965576687 1.2511917738503 1.2514713215034 1.2124659271008 1.1169239839833 1.1294852647028 1.1212616325697 1.1802572456514 1.114579585105 1.1672041585973 1.1141270023679 1.1244802819999 1.0543571052025 1.0500601382141 1.273177740896 1.2281008922808 1.1388314085923 1.186516069839 1.3653154234585 1.3588365287886 1.3790026457886 1.4349930070086 1.7367401345629 1.5607434577178 1.6409331361835 1.5478706608751 1.028726346518 1.0747022645649 1.0886410110726 1.0408101370089 1.0862938505305 1.0372988464948 1.0810377980204 1.0332780868181 1.0828622061865 1.0359230856506 1.0789352660479 1.0317303212517 1.4744077754504 1.4943340629437 1.4810355088866 1.4986728423844 1.506899963242 1.5002233764176 1.69261911324 1.6718875913944 1.9008662080679 1.7244113714035 1.5343380577552 1.5989099250559 1.6099225288214 1.5598770098931 1.5226628784687 1.494729521023 1.5703492606392 1.5872754660411 1.5199991596348 1.4600762930581 1.4297987242907 1.4151486464126 1.5147203809967 1.4779198019682 1.3596559266224 1.3874766623677 1.4129732401102 1.413786235462 1.356623377227 1.3609156648879 1.3023314480849 1.3273908585633 1.4179651072166 1.4041584834996 1.3709790079207 1.3278079932829 0.64475814006157 0.76251419185537 0.74921532730172 0.64419522319729 0.94131221243712 0.98430128622639 0.68484779708174 0.63055615441777 0.62977906717661 0.68962578045611 0.71232793617616 0.63245014715557 0.83310842308716 0.87185378571003 0.83700655920842 0.88263830717003 0.91344360829861 0.90556630967202 0.83957343532356 0.79369407773408 0.75707091899305 0.74751396260675 0.9030800511423 0.91253427827908 0.91669768379388 0.90675525990018 1.0778412957369 0.96527494157972 1.0230332687663 1.1553501392151 1.101548587672 1.0125981261635 1.6882764696236 1.6683944392038 1.6458454420045 1.6238826902599 0.75479571791949 0.74198913718856 0.75311778435847 0.74210240606287 0.84911802703667 0.87904690255732 0.85266432195775 0.88159799568226 0.82191085966784 0.78624875038945 0.73324744551081 0.74624571235995 0.8515788810827 0.93077930150768 0.90984059003236 0.84838334185706 1.0134297872529 1.0236649418327 1.015028984472 0.99127229464973 1.0910107780898 1.09005703104 1.0604397138708 1.0794645485662 0.94814022600718 0.86179069671499 1.1811399584721 1.0750663753908 1.238388573857 1.0860365593604 0.93434679388622 0.9282357924572 0.92079508988882 0.9316316595461 0.87164769927761 1.0581006985631 1.08527159946 0.86181199899411 1.0444803336042 0.86400966259023 1.0149912500726 0.86695550178806 1.4185046983235 1.3919686151672 1.2265534570365 1.2399240876954 1.2900798820075 1.3272667500505 1.2650196098182 1.272711464796 1.1132339410834 0.78636648527727 1.057582841053 0.75603494571886 0.94099564943173 0.70319353693099 0.89464699863485 0.71048187334038 1.0873020422721 1.1204272569521 1.0730511278178 1.0799952669906 1.0457371224994 1.0440205676828 1.4874702520075 1.4763476266803 1.555218323539 1.5016284167467 1.4723559597281 1.4785380410679 1.5238053952714 1.4502460509474 1.7137179476409 1.7234751571673 1.5555895865394 1.6007195943527 1.1607929568716 1.1506323411565 1.1187998119977 1.134465509231 1.5976475729802 1.5863607304556 1.5938633709501 1.615970906981 1.6360458287609 1.6267246953016 1.5626036939002 1.4923892302113 1.5772474693189 1.5458531728973 1.5503865480728 1.5915815314708 1.5395272548965 1.5360833052386 1.5388338764197 1.5427085297626 1.6397066467258 1.620801333318 1.5911278199221 1.5976548019395 1.5479801931937 1.5610186513014 1.5536720293415 1.5444751777561 1.580101989316 1.5438844138833 1.5544801144137 1.5873594591246 1.7354440848724 1.868285855357 1.1517545447434 1.689986033896 1.7434243872132 1.1758662215184 1.1940549775848 1.2278693718035 1.1906030227349 1.2399513942979 1.4702268995528 1.5653475070805 1.5423601492524 1.617147721947 1.1341829479197 1.1655512473125 0.67153258486016 0.68626414964338 0.73683971751169 0.73401381654417 0.64418108900871 0.61639019684678 0.99025861483395 0.76647239549659 0.78091069950541 0.9823405389549 0.80285846850955 1.0390756349721 0.80489365411179 1.0752204513052 0.90672712864941 1.2061554520304 0.60618264218796 0.50343015338664 1.0392867762099 0.78578189834009 0.60892227785366 0.63224947568113 0.60317461769866 0.65133701924597 0.63150535302449 0.72647514369665 0.66780633543982 0.64238766935645 0.6280678166601 0.63934092914344 1.0570672889874 0.74872476020682 0.79397195190278 0.78810992180242 0.81081515672309 0.84198732147354 0.4402338816738 0.46375608481729 0.48430080680196 0.4406050860562 1.063710649568 1.0631632777132 1.0841094552237 1.1291523535029 0.56931610776776 0.48247460438557 0.34475447587903 0.43367960914187 0.76253177972653 0.7848586700983 0.76383808976859 0.7858230974644 0.75645632618663 0.74582680909963 0.87472570659474 0.87452242116681 0.87517145913606 0.87471289671252 0.89996656185203 0.90414785482404 0.89722401198317 0.89764610959985 0.89417651046423 0.89308844185562 0.89606647285047 0.89712763360819 0.89917537731529 0.90060166460292 0.85267703117137 0.87311135415917 0.94146097779303 0.931523164473 0.9276695111637 0.93277608064608 0.89982197495029 0.87690895961457 0.87367601856126 0.89085674181934 0.8454272319086 0.86261473873754 0.99984916053731 0.99610575903355 1.0022396951299 1.0150401030841 0.80181871143296 0.84244556106784 0.9837797017258 0.99468284820237 0.96440836632775 0.98675935581189 1.3032294940266 1.2193209198356 1.516550004717 1.4697890351549 0.97991582430569 0.87563942039254 1.0740154387018 0.88177775987921 1.1530813112259 1.1514700438644 0.87737564928441 0.91546081660518 0.5871397686156 0.57438526862848 0.93906014163233 0.94054124452177 0.56484485933165 0.54195381654712 0.53512403530065 0.52983534931903 0.9183918433895 0.88294917995644 0.86506132561974 0.86154423535966 1.5107562184543 1.5178046461966 1.5405548160921 1.5991660127538 1.939455824247 1.8698036794008 1.973291124178 1.412175189029 1.6006322870012 1.5908369969789 1.6002217474877 1.6174690260934 1.5005709112426 1.3584979290254 1.3596962491727 1.5028476204188 0.90472473209317 0.90934972588125 0.88128054590045 0.88145221672013 0.87881193604758 0.88004510232082 0.86717491465288 0.86541010842208 0.81538328184902 0.83270702246984 0.81772142010666 0.83539155300512 0.83334404741615 0.81694692538275 1.9541631539871 2.0177647015176 2.0290212652774 2.0167207808569 1.8636820188132 1.8377884484792 1.9000632372308 1.830097288942 1.7766047260695 1.7068396149911 1.7925912403507 1.8054522018401 1.3708966430736 1.3822635051888 1.3491359203761 1.3213211216164 1.2187654497287 1.2364362424121 1.8141959657113 1.7803732612819 1.8268508930876 1.8656541893113 0.97885042737227 0.98000846720515 0.98399890778757 0.99202518156383 0.90124730251489 0.90901616610912 0.89624549240708 0.90694042131145 0.98124848643304 0.98511467899264 0.97575768081609 0.97388939395569 0.7999619882655 0.62923981991512 0.99699698083615 0.87709372177805 0.80804616955182 0.85600625997865 0.74447473364031 0.74432195269152 0.86897293549087 1.0277546748233 0.86535876340627 1.0207423416709 0.74824506795777 0.74449452735948 0.74642232299467 0.7447701392348 0.87602197391179 0.90507843135601 0.87620637700989 0.91101947565234 0.87680223073116 0.90637068211591 0.74616576154818 0.72443958759255 1.0515874530545 0.86188360278658 0.8640983719703 1.0274553799714 0.81697632926332 0.78385142761567 0.81733219904638 0.80301407377992 0.82082326652099 0.81885600162603 0.82323827451408 0.80996680336363 0.78470039545267 0.79277176556485 0.79335046046637 0.81017351531767 0.81597574059892 0.82064976387031 0.81028536575942 0.8140060883237 0.90127651871905 1.0807395892467 0.78932454037796 0.89521239822605 0.86490079883742 0.80685390437348 0.87526440513931 0.80260294892553 0.68627784840007 0.80597824973301 0.68446887085963 0.819860817214 0.78668852568154 0.80252649765589 0.80350633487457 0.78818010626077 0.71181766890054 0.79732146682282 0.70858171829783 0.79811305218321 0.80075820854551 0.68034908271851 0.79851385849952 0.69270481943666 0.79938379006301 0.69840375078118 0.93466203453789 0.87723904229144 0.79280565825845 0.81318832267352 0.65786689452955 0.74851721635151 0.80519179041417 0.93561985029007 0.79679888697911 0.90213523201662 0.67357229037045 0.87511016988251 0.88404314996401 0.80063612961598 0.76903576955396 0.73472393525301 0.76563470458019 0.72375103525986 0.66027907249292 0.75154330272473 0.7966351425693 0.81619145018006 0.7956588937329 0.68325241122292 0.77900992277925 0.76980639407849 0.77432276685329 0.75360039529521 0.67584074002845 0.78884474012603 0.3733464104187 0.43779926640615 0.37521995354994 0.43827121520931 0.43461941423595 0.47028047048082 0.47694812794293 0.484778617223 0.33010934429342 0.33148974655524 0.28935257321769 0.31523428145535 0.42349897417888 0.51244121597004 1.0127492601441 0.91479786791117 0.95847250915422 1.0327481556161 0.53052879745429 0.47791136246092 0.43477516798477 0.51943397741817 0.40595375417529 0.44062640369638 0.3948462532882 0.39210701919408 0.84593748359427 0.93710460845138 0.38007153331349 0.38570757804748 0.38505851275112 0.37644917095918 0.37565129126385 0.38090295166136 0.59090441875661 0.62431719743133 0.62076865513221 0.63427154292092 0.59014695894498 0.59348771620533 1.1835525190471 1.0136228289784 1.0085622435301 1.1751480289293 0.68081876597601 0.69980574580395 0.68336227386757 0.70739357600811 1.6681360146756 1.5539256720278 1.5653321403535 1.6730761569776 1.6068755404992 1.5225932068382 1.5996997588349 1.5248692565689 1.1530087232463 1.0087486544273 1.1138390376646 0.93921198265005 0.66916069240927 0.69592675097397 0.6808641058175 0.66414551330966 0.6673759626944 0.69029572343671 0.54054014980307 0.53137519544615 0.57956090128176 0.54383778744551 1.3549809099286 1.4685903931869 1.442851961875 1.2811766533255 0.85373528264286 0.98105457301633 0.84080562738848 0.88226183248749 1.1898289581812 1.3485388668545 1.2581908193207 1.3782862074499 0.74218464254828 0.73612374822231 0.75945378044781 0.83803316143955 1.0001182284513 1.0090644090843 1.0207879380509 1.0305264120782 0.90478428741298 0.9738592493717 0.86586050308701 0.959347575231 0.39101898516335 0.50744879388747 0.50188899705588 0.38997200551464 1.1161937814986 1.0622815333815 1.1203684124261 1.0695099810889 1.1329719056922 1.0818846423225 1.1282856609896 1.0732434855785 1.3353760679416 1.2787388806769 1.1019748106621 1.1662282487464 1.7384262448269 1.5835043615096 1.5119173385414 1.3586459453752 1.5600455415137 1.4453514463844 1.6831457096449 1.4881102144303 1.6114015419397 1.4212074266699 1.2827871162817 1.2361105761077 1.1421643921226 1.0864637922666 1.1473446428345 1.096821107071 1.3528105874401 1.4718844410761 1.4128267984545 1.5126967509418 1.1762687926424 1.227330399361 1.259879849048 1.1874913810374 1.1580362184125 1.1024441611254 1.1636739991591 1.1149678713189 1.3401872617215 1.2477325996637 1.277124469969 1.2230255380222 1.2610428236047 1.2918882625253 1.119316269934 1.1145950183093 1.1524172021823 1.1258454979295 1.2228250659201 1.1954112757342 1.2467289019847 1.2650851664383 1.3744481142574 1.3726064672966 1.2867100654251 1.3347520501871 1.3943157491303 1.3960194173496 1.4221906241954 1.4383528126995 1.5619482586207 1.5158112211305 1.5819689612629 1.6260687458798 1.3980791704137 1.377120831021 1.3407793083811 1.2977387970373 1.5106504162421 1.6942498931552 1.5633642419112 1.6709886595656 1.306749395855 1.3713117644469 1.3181811048377 1.4455320009275 1.2026796637966 1.2355209016757 1.3057076452546 1.3527099367156 1.5659494999874 1.5878253019272 1.5733166612398 1.5120498121553 1.3868066929113 1.4061803545646 1.0880111724277 1.078552727512 1.1538623631047 1.1852811471009 1.0765773549514 1.0688433930823 1.0836016139374 1.0723788381552 1.2347346663293 1.2090293412222 1.216092304392 1.167121372196 1.1094539648666 1.0973113450838 1.0686251420767 1.0623729010803 1.074420291639 1.0723825863023 1.2887362712624 1.2657926606942 1.4286085022676 1.4984002084414 1.5454271906414 1.5746594778688 1.2810355500336 1.338161019448 1.3205401486887 1.3594203024405 1.1848098433178 1.1986513398235 1.2395886516075 1.2155093186326 1.4237562981282 1.3732254084505 1.2778218477794 1.3328210314987 1.5257424770323 1.5957115575183 1.7039521080987 1.7699711845416 1.3565292929367 1.4307132721455 1.3641413529509 1.3395907338728 1.4414176406106 1.4247506946688 1.4868261127907 1.4462614170939 1.4609956455986 1.5795112507857 1.126585120077 1.1158322977349 1.1253585811281 1.1145648331285 1.0547370863435 1.0504095869047 1.1188765808721 1.1327772580521 1.0536434316956 1.0586067422294 1.2486757575132 1.1973164302133 1.0729393372914 1.063971630797 1.0675390176153 1.061219685968 1.1521591166056 1.1346498676427 1.1284479024476 1.1473145858313 1.2640334090799 1.2413637620789 1.2498470056596 1.2727158329602 1.2956891028489 1.3050510520215 1.3418387764757 1.2957338274335 1.3714205134222 1.3182183578223 1.2347380091911 1.242052258338 1.3377264993742 1.307694657496 1.2696693599511 1.2583617395665 1.2744505053061 1.3072785328328 1.7100751577534 1.5861457926996 1.6813311566797 1.7085257983175 1.2361074374304 1.2003634517081 1.0735553353273 1.0280957820785 1.0739780104341 1.0282549501328 1.0999906937046 1.0506812268614 1.1094051329683 1.0591995359533 1.1057497674159 1.0531880193428 1.0929734279818 1.0425880722855 1.0958439114288 1.0470100720591 1.0951600335467 1.0278132297913 0.97810216443999 1.0427516397716 0.982755428719 1.0583068391644 1.1659307470247 1.2016425877116 1.0060849274034 1.0854933728239 1.0001791029823 1.0663696773828 1.0754833777208 1.0298209162774 1.0771793818124 1.0304619844202 1.4693451122836 1.4894916051272 1.0168204040123 1.0220085511637 1.