# vtk DataFile Version 3.0
d-2__ created by libgimli-v1.5.0-1-g5991b6ac
ASCII
DATASET UNSTRUCTURED_GRID
POINTS 517 double
0	-2.8	0
0.5	-2.8	0
1	-2.98	0
1.5	-2.98	0
2	-2.98	0
2.5	-3.14	0
3	-3.14	0
3.5	-3.14	0
4	-3.4	0
4.5	-3.4	0
5	-3.54	0
5.5	-3.66	0
6	-3.66	0
6.5	-3.78	0
7	-3.9	0
7.5	-3.9	0
8	-4.03	0
8.5	-4.15	0
9	-4.25	0
9.5	-4.25	0
10	-4.33	0
10.5	-4.41	0
11	-4.41	0
11.5	-4.48	0
12	-4.55	0
12.5	-4.55	0
13	-4.69	0
13.5	-4.69	0
14	-4.69	0
14.5	-4.74	0
15	-4.74	0
15.5	-4.74	0
16	-4.68	0
16.5	-4.68	0
17	-4.62	0
17.5	-4.52	0
18	-4.52	0
18.5	-4.43	0
19	-4.33	0
19.5	-4.33	0
20	-4.28	0
20.5	-4.22	0
21	-4.19	0
21.5	-4.19	0
22	-4.14	0
22.5	-4.12	0
23	-4.12	0
23.5	-4.06	0
24	-4.07	0
24.5	-4.07	0
25	-4.09	0
25.5	-4.09	0
26	-4.09	0
26.5	-4.21	0
27	-4.21	0
27.5	-4.21	0
28	-4.27	0
28.5	-4.27	0
29	-4.4	0
29.5	-4.37	0
30	-4.37	0
30.5	-4.45	0
31	-4.43	0
31.5	-4.43	0
32	-4.53	0
32.5	-4.53	0
33	-4.62	0
33.5	-4.62	0
34	-4.62	0
34.5	-4.68	0
35	-4.68	0
35.5	-4.66	0
36	-4.68	0
36.5	-4.68	0
37	-4.59	0
37.5	-4.59	0
38	-4.59	0
38.5	-4.47	0
39	-4.47	0
39.5	-4.47	0
40	-4.33	0
40.5	-4.33	0
41	-4.28	0
41.5	-4.17	0
42	-4.17	0
42.5	-4.12	0
43	-4	0
43.5	-4	0
44	-3.94	0
44.5	-3.84	0
45	-3.84	0
45.5	-3.84	0
46	-3.84	0
46.5	-3.84	0
47	-3.84	0
47.5	-3.84	0
47.5	0	0
0	0	0
41.2	-3.2	0
37.6	-2.6	0
34.3	-2.3	0
30.2	-2.1	0
25.5	-2.2	0
21.3	-2.7	0
17.6	-3.5	0
47.5	-2.8800000000025	0
47.5	-1.9200000000055	0
47.5	-0.96000000000267	0
46.510416666673	0	0
45.520833333346	0	0
44.531250000018	0	0
43.541666666691	0	0
42.552083333364	0	0
41.562500000037	0	0
40.572916666709	0	0
39.583333333382	0	0
38.593750000055	0	0
37.604166666728	0	0
36.6145833334	0	0
35.625000000073	0	0
34.635416666746	0	0
33.645833333419	0	0
32.656250000092	0	0
31.666666666764	0	0
30.677083333437	0	0
29.68750000011	0	0
28.697916666783	0	0
27.708333333455	0	0
26.718750000128	0	0
25.729166666801	0	0
24.739583333474	0	0
23.750000000146	0	0
22.760416666812	0	0
21.770833333477	0	0
20.781250000142	0	0
19.791666666808	0	0
18.802083333473	0	0
17.812500000139	0	0
16.822916666804	0	0
15.833333333469	0	0
14.843750000131	0	0
13.854166666788	0	0
12.864583333446	0	0
11.875000000104	0	0
10.885416666762	0	0
9.8958333334203	0	0
8.9062500000783	0	0
7.9166666667363	0	0
6.9270833333942	0	0
5.9375000000522	0	0
4.9479166667102	0	0
3.9583333333681	0	0
2.9687500000261	0	0
1.9791666666841	0	0
0.98958333334203	0	0
0	-0.93333333333107	0
0	-1.8666666666643	0
42.100000000003	-3.6000000000011	0
40.300000000005	-3.0500000000008	0
39.400000000011	-2.9000000000018	0
38.499999999999	-2.7499999999999	0
36.775000000001	-2.5250000000001	0
35.95	-2.45	0
35.125000000005	-2.3750000000004	0
33.480000000006	-2.2600000000003	0
32.659999999998	-2.2199999999999	0
31.840000000002	-2.1800000000001	0
31.020000000006	-2.1400000000003	0
29.260000000004	-2.1199999999999	0
28.320000000009	-2.1399999999998	0
27.380000000011	-2.1599999999998	0
26.440000000008	-2.1799999999998	0
24.659999999999	-2.3000000000001	0
23.820000000004	-2.3999999999995	0
22.980000000005	-2.4999999999994	0
22.140000000002	-2.5999999999997	0
20.374999999999	-2.9000000000001	0
19.449999999999	-3.1000000000001	0
18.524999999998	-3.3000000000004	0
16.800000000002	-4.0899999999983	0
32.807687296899	-4.1260671731017	0
31.793801069621	-4.0298862964982	0
33.773473561464	-4.2778779233412	0
34.75	-4.2469872981078	0
30.281149181799	-3.9753397471965	0
36.245457306487	-4.2129725565629	0
28.820762114153	-3.9578611962713	0
27.736263645116	-3.7558496313493	0
37.201602433892	-4.0797609916107	0
38.170587869473	-4.0318205478749	0
26.815150704496	-3.7260240909931	0
25.250439464732	-3.6727446508419	0
24.260368179469	-3.6051727482027	0
35.530808675787	-3.0771888540192	0
31.380358207393	-2.8420922447828	0
29.790901863716	-2.7959026766754	0
33.050970577818	-3.0137264363436	0
22.745204250399	-3.6851161223958	0
21.706896398117	-3.7339639811701	0
39.25	-4.0369872981078	0
26.013197431493	-3.01831576102	0
31.279418917276	-3.9851083301627	0
23.460895459139	-3.118078423538	0
37.168314583366	-3.3253283003718	0
37.906323566493	-3.3228962551254	0
29.77320722556	-3.926100214998	0
26.896908207804	-2.8120173452449	0
27.731455929668	-2.8310388089864	0
28.424425267417	-3.0525072960343	0
20.723393552146	-3.6959873613603	0
36.343339790231	-3.1808068209199	0
32.172851205727	-2.9874575829194	0
40.707285287452	-3.7304820955357	0
30.578946383817	-2.916748857198	0
38.749330772679	-3.5116614095299	0
34.718573599063	-3.1251964615937	0
33.868251429849	-3.0893649133502	0
34.277271679368	-3.5837222439334	0
33.428773102019	-3.546712215943	0
32.600799181848	-3.4920064982688	0
25.19963430481	-2.8471429297918	0
31.62031169264	-3.4876743734199	0
31.037089555023	-3.4764946383257	0
35.875600985866	-3.6770341788826	0
35.224092471107	-3.7652230840494	0
18.161042921709	-3.9420103444204	0
19.14721898827	-3.8075968758164	0
24.537455459867	-2.9937794080086	0
36.610333597324	-3.7798826694051	0
30.080847665408	-3.4384333209061	0
22.228253644207	-3.6818788888375	0
28.352388473541	-3.7209747234634	0
20.126636560627	-3.6858742462526	0
40.101866443456	-3.7898148571889	0
25.75	-3.6569872981078	0
27.261370594288	-3.8243515038064	0
38.73398372843	-4.1040938511025	0
34.258086302567	-4.1586040049316	0
35.243087662575	-4.3125996266539	0
35.741345841768	-4.2107877511122	0
23.73763135302	-3.6258664964621	0
32.298244037275	-4.054794544368	0
22.481198662619	-3.1762071523008	0
24.766538566249	-3.6665358437835	0
26.257735963256	-3.6525209376394	0
18.666652381996	-3.9619214440475	0
29.481173764281	-3.4056629989384	0
37.682871931237	-3.8223353454664	0
21.189483541044	-3.8111268897431	0
21.205166007569	-3.3461773849053	0
30.783794555738	-4.0164985939602	0
21.843585785419	-3.2063712345356	0
32.097201437422	-3.6103638590949	0
33.336119364067	-4.0947270050806	0
23.241019466799	-3.6456184384043	0
36.711478667541	-4.2685232435157	0
19.644771109779	-3.8406942244138	0
41.187717092502	-3.8332158940267	0
41.597543418501	-3.7946431788056	0
23.981139032334	-3.1683028483924	0
29.303527445494	-3.9678913831726	0
39.540942304942	-3.5280459824359	0
37.71101244692	-4.2227833769904	0
17.30887388245	-4.1531477855556	0
17.713983360832	-4.1270316259952	0
22.987584187919	-3.2363313303855	0
34.692161444061	-3.7676108720116	0
27.899994387514	-3.3160508513046	0
28.9314203566	-3.4633782752742	0
29.1274931545	-2.8408205324796	0
39.67856174968	-4.0309696275465	0
30.552365468357	-3.5647030315173	0
33.014089573016	-3.717123855098	0
25.486319914787	-3.2855131624354	0
25.048077542089	-3.2931431989722	0
33.828812015073	-3.7553078680802	0
27.277291470494	-3.3714703712758	0
26.613474482559	-3.330042971887	0
12.834818706395	-4.1760001669863	0
14.293086374222	-4.2841362577839	0
11.380454911248	-4.0406109257553	0
9.8044297365486	-3.8379797340269	0
8.3603153037629	-3.6570014707219	0
43.702579007508	-3.5210467823391	0
44.769959492128	-3.3966846302419	0
7.25	-3.4669872981078	0
5.7537110450633	-3.20124969955	0
15.3385416668	-0.85700430583128	0
12.365393432829	-0.84620981002155	0
45.75	-3.4069872981078	0
3.25	-2.7069872981078	0
10.414995732695	-0.86335483111613	0
15.206713456701	-4.3151072240017	0
1.7485453310099	-2.5296764432863	0
43.008757450285	-0.98873207968039	0
8.271397663227	-0.83320690391837	0
44.96117059189	-0.84461940910665	0
6.3568587400439	-0.76108106941612	0
4.3090192906998	-2.9842401870594	0
16.589946838579	-3.1744343900534	0
4.4128003645353	-0.84736274814493	0
40.879207151087	-2.3573940538224	0
18.307291666806	-0.85700430582948	0
2.4037210680303	-0.86036115321625	0
0.91280399225955	-2.4376259641268	0
39.044578950444	-2.116726890856	0
20.52472189286	-2.02004361611	0
37.252451905284	-1.8480290418785	0
22.473397459625	-1.8225386608198	0
17.425137439823	-2.4782998162769	0
16.576928470632	-2.1750664826984	0
15.83200608987	-2.7340456173385	0
46.699980919495	-1.4465237035061	0
35.584299959392	-1.6538752277077	0
42.843800132156	-3.2128136884493	0
24.153397459624	-1.6225386608251	0
33.045633716719	-1.527763160113	0
2.2766773240736	-2.5315851378726	0
1.9987008488979	-2.0302867339576	0
2.545178414838	-2.0772328232804	0
40.074238414732	-0.78961467633063	0
18.864115825695	-2.3858052518693	0
12.253572886536	-4.0678378395424	0
12.626716469728	-3.6490585992799	0
13.19299424592	-3.7152484784958	0
12.945861511754	-3.1971658106998	0
13.569421820049	-3.2403725569807	0
12.424384615892	-3.0925633212027	0
13.311952678643	-2.6392849217739	0
13.993777482791	-2.6877152992476	0
13.691026445462	-2.0415492661274	0
14.460914908067	-2.1158367083769	0
0.80829037686445	-1.3999999999977	0
14.225057609248	-3.3134182298057	0
4.7706112121663	-2.9550874092152	0
4.4991672713518	-2.4737435647576	0
5.0887531701535	-2.4584682784878	0
31.504523595821	-1.4487820203355	0
41.755998946046	-2.5159597756288	0
41.459728134554	-1.6418998221577	0
12.853054218954	-2.0768828045915	0
14.083257825479	-1.4354101967039	0
25.953547912441	-1.416751884539	0
6.2717208813496	-3.2144467414136	0
6.0335019121917	-2.7141568880452	0
6.5849768393959	-2.7251657224714	0
6.3088645700513	-2.1312842312753	0
6.9375446952689	-2.1621108835512	0
38.125798560996	-0.75393549618617	0
16.068946186865	-3.9094176903819	0
29.713777784716	-1.3475558815575	0
4.7809329438987	-1.9296666206766	0
4.1121578040505	-1.9629041761028	0
34.20641056069	-0.7944149160783	0
46.809802230338	-3.3093811559929	0
21.244581612284	-0.85701629263831	0
27.833649337926	-1.3521892741138	0
15.238044693057	-3.2914539958844	0
5.3345704021899	-1.8788449826601	0
23.262415335786	-0.88500170116574	0
42.305858888102	-1.7263998735869	0
9.2629801059191	-3.8017243121888	0
9.543029195811	-3.3346406530902	0
10.146104020533	-3.3715511960847	0
9.8773135527466	-2.8289070537825	0
10.508881063217	-2.8740484004926	0
9.2315558694734	-2.7978220244589	0
9.5914805925278	-2.2363220339449	0
8.9062310419361	-2.2238955666365	0
9.2799248145407	-1.6068468291225	0
8.5558469146235	-2.8103523840949	0
8.2232614109624	-2.1928795990825	0
7.8647362430765	-2.820222106425	0
10.722185298964	-3.412426407051	0
11.125676128673	-2.9090520587589	0
10.876647718461	-2.3246240613239	0
11.552657643708	-2.3646170270059	0
[...]
CELL_DATA 882
SCALARS Marker double 1
LOOKUP_TABLE default
3 3 3 3 3 3 3 3 3 3 3 3 3 3 3 3 3 3 3 3 3 3 3 3 3 3 3 3 3 3 3 3 3 3 3 3 3 3 3 3 3 3 3 3 3 3 3 3 3 3 3 3 3 3 3 3 3 3 3 3 3 3 3 3 3 3 3 3 3 3 3 3 3 3 3 3 3 3 3 3 3 3 3 3 3 3 3 3 3 3 3 3 3 3 3 3 3 3 3 3 3 3 3 3 3 3 3 3 3 3 3 3 3 3 3 3 3 3 3 3 3 3 3 3 3 3 3 3 3 3 3 3 3 3 3 3 3 3 3 3 3 3 3 3 3 3 3 3 3 3 3 3 3 3 3 3 3 3 3 3 3 3 3 3 3 3 3 3 3 3 3 3 3 3 3 3 3 3 3 3 3 3 3 3 3 3 3 3 3 3 3 3 3 3 3 3 3 3 3 3 3 3 3 3 3 3 3 3 3 3 3 3 3 3 3 3 3 3 3 3 3 3 3 3 3 3 3 3 3 3 3 3 3 3 3 3 3 3 3 3 3 3 3 3 3 3 3 3 3 3 3 3 3 3 3 3 3 3 3 3 3 3 3 3 3 3 3 3 3 3 3 3 3 3 3 3 3 3 3 2 2 2 2 2 2 2 2 2 2 2 2 2 2 2 2 2 2 2 2 2 2 2 2 2 2 2 2 2 2 2 2 2 2 2 2 2 2 2 2 2 2 2 2 2 2 2 2 2 2 2 2 2 2 2 2 2 2 2 2 2 2 2 2 2 2 2 2 2 2 2 2 2 2 2 2 2 2 2 2 2 2 2 2 2 2 2 2 2 2 2 2 2 2 2 2 2 2 2 2 2 2 2 2 2 2 2 2 2 2 2 2 2 2 2 2 2 2 2 2 2 2 2 2 2 2 2 2 2 2 2 2 2 2 2 2 2 2 2 2 2 2 2 2 2 2 2 2 2 2 2 2 2 2 2 2 2 2 2 2 2 2 2 2 2 2 2 2 2 2 2 2 2 2 2 2 2 2 2 2 2 2 2 2 2 2 2 2 2 2 2 2 2 2 2 2 2 2 2 2 2 2 2 2 2 2 2 2 2 2 2 2 2 2 2 2 2 2 2 2 2 2 2 2 2 2 2 2 2 2 2 2 2 2 2 2 2 2 2 2 2 2 2 2 2 2 2 2 2 2 2 2 2 2 2 2 2 2 2 2 2 2 2 2 2 2 2 2 2 2 2 2 2 2 2 2 2 2 2 2 2 2 2 2 2 2 2 2 2 2 2 2 2 2 2 2 2 2 2 2 2 2 2 2 2 2 2 2 2 2 2 2 2 2 2 2 2 2 2 2 2 2 2 2 2 2 2 2 2 2 2 2 2 2 2 2 2 2 2 2 2 2 2 2 2 2 2 2 2 2 2 2 2 2 2 2 2 2 2 2 2 2 2 2 2 2 2 2 2 2 2 2 2 2 2 2 2 2 2 2 2 2 2 2 2 2 2 2 2 2 2 2 2 2 2 2 2 2 2 2 2 2 2 2 2 2 2 2 2 2 2 2 2 2 2 2 2 2 2 2 2 2 2 2 2 2 2 2 2 2 2 2 2 2 2 2 2 2 2 2 2 2 2 2 2 2 2 2 2 2 2 2 2 2 2 2 2 2 2 2 2 2 2 2 2 2 2 2 2 2 2 2 2 2 2 2 2 2 2 2 2 2 2 2 2 2 2 2 2 2 2 2 2 2 2 2 2 2 2 2 2 2 2 2 2 2 2 2 2 2 2 2 2 2 2 2 2 2 2 2 2 2 2 2 2 2 2 2 2 2 2 2 2 2 2 2 2 2 2 2 2 2 2 2 2 2 2 2 2 2 2 2 2 2 2 2 2 2 2 2 2 2 2 2 2 2 2 2 2 2 2 2 2 2 2 2 2 2 2 2 2 2 2 2 2 2 2 2 2 2 2 2 2 2 2 2 2 2 2 2 2 2 2 
POINT_DATA 517
SCALARS ab-pot double 1
LOOKUP_TABLE default
0.58855912502688 0.58860585240289 0.58880157249344 0.58911358940246 0.58955662087681 0.59013119725321 0.59084201738217 0.5916857626432 0.59267872946232 0.5936995289885 0.59485039734903 0.59617230568038 0.59756840103929 0.59914751053711 0.60096530950287 0.60288470319535 0.60505646663309 0.60739879873428 0.6098820095055 0.61261103963915 0.61569252411567 0.61939656991273 0.62326102895964 0.62754518983872 0.63326152729291 0.63838734232696 0.64427546818003 0.65193760307519 0.64724083097148 0.61196648500448 0.66066784231349 -0.87665450877819 -1 0.94346968290256 -0.71150033244714 0.55304209825989 -0.62415284688733 -0.60843068493356 -0.59259279278719 -0.58642827279682 -0.57758484149042 -0.56844258773092 -0.56000691713486 -0.55289198236828 -0.54643713454086 -0.54062909407445 -0.53548692279599 -0.53069888117881 -0.52627884824951 -0.52226942547746 -0.51862611985449 -0.51525843104356 -0.51205187148556 -0.50923236215266 -0.50672455179995 -0.5042887628721 -0.50198309855501 -0.49984412657133 -0.49791236972909 -0.49621697903367 -0.49449835013367 -0.49291503340759 -0.49146302978369 -0.49001621010693 -0.48867951981743 -0.48748679091993 -0.48638986198571 -0.48539297099221 -0.48443777749285 -0.48355583701751 -0.48276913320529 -0.48201844677117 -0.48132255432322 -0.48069980526761 -0.48009811574102 -0.47952641111184 -0.47902344798516 -0.47854130032523 -0.47808512945885 -0.47769375588054 -0.47732265571564 -0.47698296943244 -0.47667506599387 -0.47640103160036 -0.47614875981273 -0.4759095521712 -0.47564406885713 -0.47496178732268 -0.47444592066374 -0.47405830518226 -0.47374848675229 -0.47348313459072 -0.47329477795585 -0.47318116328336 -0.47314706987164 -0.47304990146925 -0.47287266698748 0.58828140036518 -0.47652962503104 -0.47941524041209 -0.48405534800509 -0.49399093298875 -0.51453763340468 -0.54923522451149 -0.70019048650848 -0.47300850022853 -0.47296496892882 -0.47296471675663 -0.47298399552928 -0.47323242622901 -0.47361262781904 -0.47411889197559 -0.47473865269996 -0.47544271869802 -0.4762122509785 -0.47705722985033 -0.47799850799962 -0.4790584636348 -0.48026965915293 -0.48166882075611 -0.4832622863249 -0.48515471079808 -0.48719918626605 -0.48963087833342 -0.49235965305122 -0.49543336286337 -0.49889165537755 -0.50263713950632 -0.5064961131982 -0.51034332958983 -0.51339734779002 -0.51449033715896 -0.51232115879424 -0.50247783747413 -0.44085404117854 0.49652608384668 0.56548656528563 0.60525044050885 0.62899451559955 0.64170738429701 0.6439210519027 0.63685276615082 0.63228753381211 0.6248572198605 0.61787418488874 0.61211502224351 0.60696226581022 0.60287720414882 0.59929974355336 0.59629869131646 0.59383790383926 0.59184363603091 0.59029837481575 0.589209837179 0.58853644969412 0.58838966419088 0.58843021593963 -0.47609276094715 -0.47706361620209 -0.47773760770598 -0.4785244155809 -0.48035411730243 -0.48143896696716 -0.48266804217572 -0.4856047301037 -0.48738477288132 -0.48937379989555 -0.49158548563734 -0.49709592068794 -0.50065340758359 -0.50476901028142 -0.50940002416131 -0.51975061053783 -0.52580284931772 -0.53275662100603 -0.5408196453865 -0.56015949023234 -0.58110492283834 -0.53399922541607 0.77066787439789 -0.48687723239849 -0.48931762903242 -0.48489210452007 -0.4831710267787 -0.49366755254525 -0.48099827151509 -0.49873576441539 -0.50328880630898 -0.47983478981429 -0.47881417632885 -0.50774027145981 -0.51690780656704 -0.524030164407 -0.48199433725562 -0.49051856318669 -0.49531505844108 -0.48643218165845 -0.53767661706606 -0.54944812770053 -0.4778641541352 -0.51198382822555 -0.49069737411408 -0.53014960738833 -0.4798532350459 -0.47906740673897 -0.49531325229771 -0.50721745424584 -0.50327731003638 -0.50038074099712 -0.56340497394577 -0.48086430711943 -0.48844999981672 -0.47682131462043 -0.49279772792961 -0.47826395366764 -0.48325772270996 -0.48477523521212 -0.48402303387695 -0.48563396073723 -0.48742684199556 -0.51680346329559 -0.48983627674264 -0.49144236571265 -0.48148568510731 -0.48243211066458 -0.55722134682714 -0.59507543942137 -0.52146780486044 -0.48052145163194 -0.49435105751473 -0.54318805648917 -0.50059435487123 -0.57199189165734 -0.47721856842252 -0.51369149745768 -0.50551150519001 -0.47831022448536 -0.48401083523976 -0.48240128653923 -0.48167427979654 -0.5283647135551 -0.48804391202405 -0.53929325259237 -0.52029080107842 -0.51074570276845 -0.60684800698775 -0.49635736362442 -0.47930468847929 -0.55653487507371 -0.55434284948089 -0.49212175499652 -0.54611791808008 -0.48861030727631 -0.4857608194034 -0.53278208412592 -0.48041512960791 -0.58112876669301 -0.47655126816097 -0.4763438132013 -0.52594546251275 -0.49693120753435 -0.47761420967812 -0.47929159890579 0.67726553390596 -0.53129181468347 -0.53466310459464 -0.48329586373591 -0.50258896964978 -0.49834937717889 -0.49761637665727 -0.47752687510196 -0.49287467053495 -0.48648590900226 -0.51532436459073 -0.51815377612551 -0.4848288096387 -0.50544285877182 -0.50882761446584 0.641768164231 0.67472520495152 0.62616771410284 0.61407089461325 0.60635725122907 -0.47465982012308 -0.4738536203504 0.60165140650979 0.59667370188439 0.64844111500806 0.62973715622196 -0.47335859393835 0.59116566517875 0.61544160620835 0.71917340825671 0.58928243568885 -0.47447506049975 0.60446356664432 -0.47345122025473 0.59756897890903 0.59317498027175 0.69425794815712 0.59270764509628 -0.4763814666307 0.58441074923204 0.58962401250855 0.58872147454203 -0.47783533946653 -0.52842795047751 -0.4796679242773 -0.52531752089336 0.61027302728552 0.66426985549095 0.69751696637657 -0.47300907205336 -0.48186491964784 -0.47529902444342 -0.51971186963543 -0.48647133870256 0.58978076692886 0.58942952027066 0.59003312857402 -0.47667509602636 -0.4919441445553 0.63475359159633 0.63901008602788 0.64665270756854 0.64287745902962 0.65381061670882 0.63501398667199 0.64655384173149 0.66185573697691 0.64998176650215 0.66087323840112 0.58849608892786 0.66650853079679 0.59409559364703 0.593340414598 0.59464510379307 -0.4902173902785 -0.47579809372153 -0.47572991401492 0.63732408162836 0.64855639033913 -0.51071780252926 0.59815150010211 0.59725579907895 0.59892068912285 0.5978252984657 0.59986067562559 -0.47850720791505 -0.8671770969342 -0.49551150810818 0.59380996669428 0.59243563680178 -0.4840650208439 -0.47308455722652 -0.50245515402102 -0.50243886194351 0.69149974152209 0.59513353207644 -0.51579600211858 -0.47513699536782 0.61099992865382 0.61202708846766 0.61580468536896 0.61360818612978 0.61774853749149 0.60996225166278 0.61152012407269 0.60795500005479 0.60955196660766 0.60656840832598 0.60478172128461 0.60357741797665 0.6199914015589 0.62248085457211 0.6197944660874 0.62524845404109 0.62217135890861 0.63371019391448 0.64455898317599 0.59093369017167 0.6274015860529 0.59505191456742 0.60066540952877 -0.47390559171677 -0.47375392924831 -0.4733901925285 -0.47362759502302 -0.47406602014569 -0.47325152059009 -0.47423407154927 -0.47461525893663 0.60376846600285 0.65612556111785 0.66917315954921 -0.47516068563561 0.58882370824806 -0.51334981894209 -0.48247962589494 -0.47873365026308 0.63745900528102 -0.48098437571553 -0.47963371923681 0.58893814822543 0.62173188689786 -0.51523838310254 -0.4775341070388 -0.51954951079669 -0.33042199294748 -0.47353210338703 -0.47310602025798 -0.49269245294331 -0.47302127591441 0.61318948271504 0.52567687114127 0.4217665375176 -0.49873345836761 -0.47420746181521 -0.47437778500757 -0.47392015992891 0.59216517985571 0.59138628728309 -0.5064797365975 -0.48829521058388 -0.47705646870128 0.49888659260336 -0.48316424094203 -0.52525858393691 -0.48062269087012 0.6030854160028 0.61764240668918 0.68776167397466 -0.47589262209964 0.63251655867286 0.60110677784031 0.6083026182141 0.61036122085924 0.59040534866387 -0.47318968825425 -0.51509034269239 0.59532176949675 0.59852076790621 0.59980852975798 0.62460639100737 0.6292242626037 0.62879997286279 0.60212222634947 0.60605089719005 -0.48487385061424 0.64982020977597 0.59045736648776 0.61540497725257 0.65768967839194 0.59176291317029 -0.47360378326442 0.59628282210682 -0.47643884422494 0.6182461486816 0.58544159294519 -0.48957453412713 -0.49106262022974 0.62161354191344 0.58909634544715 -0.48844700387895 -0.48613705210561 -0.47511023185693 0.58972008731002 -0.47521387486713 0.68986911861776 -0.4939607587707 0.64572551990511 0.60855425807845 -0.47317946558226 -0.5081778067088 0.60084182576433 -0.49708077535906 -0.47322623073619 -0.51205211633245 0.60546927274567 -0.50057984452167 -0.5044001963318 -0.47722628327081 0.65273169831778 -0.8465029106309 0.58849761555366 0.59430621221862 0.5885720614383 0.59069345033852 0.61715005884042 0.63037402767431 0.59604851452249 -0.47812939392372 -0.47482304677465 -0.47299780487638 0.64103053291397 0.67135220954864 0.63898522644639 0.59299012252933 0.58861865451094 0.58897234322897 0.63442976357877 -0.47336108793847 0.60252293731301 0.59622358156526 -0.53481190587595 0.64115465450133 0.61930379429658 0.54755473770307 -0.47473921850258 0.60011914389136 0.7916776209283 -0.47907364262614 0.78761938933414 0.63350392359207 -0.50903999773793 0.60745949286074 0.6988019189029 
SCALARS mn-pot double 1
LOOKUP_TABLE default