# vtk DataFile Version 3.0
d-2__ created by libgimli-v1.5.0-1-g5991b6ac
ASCII
DATASET UNSTRUCTURED_GRID
POINTS 517 double
0	-2.8	0
0.5	-2.8	0
1	-2.98	0
1.5	-2.98	0
2	-2.98	0
2.5	-3.14	0
3	-3.14	0
3.5	-3.14	0
4	-3.4	0
4.5	-3.4	0
5	-3.54	0
5.5	-3.66	0
6	-3.66	0
6.5	-3.78	0
7	-3.9	0
7.5	-3.9	0
8	-4.03	0
8.5	-4.15	0
9	-4.25	0
9.5	-4.25	0
10	-4.33	0
10.5	-4.41	0
11	-4.41	0
11.5	-4.48	0
12	-4.55	0
12.5	-4.55	0
13	-4.69	0
13.5	-4.69	0
14	-4.69	0
14.5	-4.74	0
15	-4.74	0
15.5	-4.74	0
16	-4.68	0
16.5	-4.68	0
17	-4.62	0
17.5	-4.52	0
18	-4.52	0
18.5	-4.43	0
19	-4.33	0
19.5	-4.33	0
20	-4.28	0
20.5	-4.22	0
21	-4.19	0
21.5	-4.19	0
22	-4.14	0
22.5	-4.12	0
23	-4.12	0
23.5	-4.06	0
24	-4.07	0
24.5	-4.07	0
25	-4.09	0
25.5	-4.09	0
26	-4.09	0
26.5	-4.21	0
27	-4.21	0
27.5	-4.21	0
28	-4.27	0
28.5	-4.27	0
29	-4.4	0
29.5	-4.37	0
30	-4.37	0
30.5	-4.45	0
31	-4.43	0
31.5	-4.43	0
32	-4.53	0
32.5	-4.53	0
33	-4.62	0
33.5	-4.62	0
34	-4.62	0
34.5	-4.68	0
35	-4.68	0
35.5	-4.66	0
36	-4.68	0
36.5	-4.68	0
37	-4.59	0
37.5	-4.59	0
38	-4.59	0
38.5	-4.47	0
39	-4.47	0
39.5	-4.47	0
40	-4.33	0
40.5	-4.33	0
41	-4.28	0
41.5	-4.17	0
42	-4.17	0
42.5	-4.12	0
43	-4	0
43.5	-4	0
44	-3.94	0
44.5	-3.84	0
45	-3.84	0
45.5	-3.84	0
46	-3.84	0
46.5	-3.84	0
47	-3.84	0
47.5	-3.84	0
47.5	0	0
0	0	0
41.2	-3.2	0
37.6	-2.6	0
34.3	-2.3	0
30.2	-2.1	0
25.5	-2.2	0
21.3	-2.7	0
17.6	-3.5	0
47.5	-2.8800000000025	0
47.5	-1.9200000000055	0
47.5	-0.96000000000267	0
46.510416666673	0	0
45.520833333346	0	0
44.531250000018	0	0
43.541666666691	0	0
42.552083333364	0	0
41.562500000037	0	0
40.572916666709	0	0
39.583333333382	0	0
38.593750000055	0	0
37.604166666728	0	0
36.6145833334	0	0
35.625000000073	0	0
34.635416666746	0	0
33.645833333419	0	0
32.656250000092	0	0
31.666666666764	0	0
30.677083333437	0	0
29.68750000011	0	0
28.697916666783	0	0
27.708333333455	0	0
26.718750000128	0	0
25.729166666801	0	0
24.739583333474	0	0
23.750000000146	0	0
22.760416666812	0	0
21.770833333477	0	0
20.781250000142	0	0
19.791666666808	0	0
18.802083333473	0	0
17.812500000139	0	0
16.822916666804	0	0
15.833333333469	0	0
14.843750000131	0	0
13.854166666788	0	0
12.864583333446	0	0
11.875000000104	0	0
10.885416666762	0	0
9.8958333334203	0	0
8.9062500000783	0	0
7.9166666667363	0	0
6.9270833333942	0	0
5.9375000000522	0	0
4.9479166667102	0	0
3.9583333333681	0	0
2.9687500000261	0	0
1.9791666666841	0	0
0.98958333334203	0	0
0	-0.93333333333107	0
0	-1.8666666666643	0
42.100000000003	-3.6000000000011	0
40.300000000005	-3.0500000000008	0
39.400000000011	-2.9000000000018	0
38.499999999999	-2.7499999999999	0
36.775000000001	-2.5250000000001	0
35.95	-2.45	0
35.125000000005	-2.3750000000004	0
33.480000000006	-2.2600000000003	0
32.659999999998	-2.2199999999999	0
31.840000000002	-2.1800000000001	0
31.020000000006	-2.1400000000003	0
29.260000000004	-2.1199999999999	0
28.320000000009	-2.1399999999998	0
27.380000000011	-2.1599999999998	0
26.440000000008	-2.1799999999998	0
24.659999999999	-2.3000000000001	0
23.820000000004	-2.3999999999995	0
22.980000000005	-2.4999999999994	0
22.140000000002	-2.5999999999997	0
20.374999999999	-2.9000000000001	0
19.449999999999	-3.1000000000001	0
18.524999999998	-3.3000000000004	0
16.800000000002	-4.0899999999983	0
32.807687296899	-4.1260671731017	0
31.793801069621	-4.0298862964982	0
33.773473561464	-4.2778779233412	0
34.75	-4.2469872981078	0
30.281149181799	-3.9753397471965	0
36.245457306487	-4.2129725565629	0
28.820762114153	-3.9578611962713	0
27.736263645116	-3.7558496313493	0
37.201602433892	-4.0797609916107	0
38.170587869473	-4.0318205478749	0
26.815150704496	-3.7260240909931	0
25.250439464732	-3.6727446508419	0
24.260368179469	-3.6051727482027	0
35.530808675787	-3.0771888540192	0
31.380358207393	-2.8420922447828	0
29.790901863716	-2.7959026766754	0
33.050970577818	-3.0137264363436	0
22.745204250399	-3.6851161223958	0
21.706896398117	-3.7339639811701	0
39.25	-4.0369872981078	0
26.013197431493	-3.01831576102	0
31.279418917276	-3.9851083301627	0
23.460895459139	-3.118078423538	0
37.168314583366	-3.3253283003718	0
37.906323566493	-3.3228962551254	0
29.77320722556	-3.926100214998	0
26.896908207804	-2.8120173452449	0
27.731455929668	-2.8310388089864	0
28.424425267417	-3.0525072960343	0
20.723393552146	-3.6959873613603	0
36.343339790231	-3.1808068209199	0
32.172851205727	-2.9874575829194	0
40.707285287452	-3.7304820955357	0
30.578946383817	-2.916748857198	0
38.749330772679	-3.5116614095299	0
34.718573599063	-3.1251964615937	0
33.868251429849	-3.0893649133502	0
34.277271679368	-3.5837222439334	0
33.428773102019	-3.546712215943	0
32.600799181848	-3.4920064982688	0
25.19963430481	-2.8471429297918	0
31.62031169264	-3.4876743734199	0
31.037089555023	-3.4764946383257	0
35.875600985866	-3.6770341788826	0
35.224092471107	-3.7652230840494	0
18.161042921709	-3.9420103444204	0
19.14721898827	-3.8075968758164	0
24.537455459867	-2.9937794080086	0
36.610333597324	-3.7798826694051	0
30.080847665408	-3.4384333209061	0
22.228253644207	-3.6818788888375	0
28.352388473541	-3.7209747234634	0
20.126636560627	-3.6858742462526	0
40.101866443456	-3.7898148571889	0
25.75	-3.6569872981078	0
27.261370594288	-3.8243515038064	0
38.73398372843	-4.1040938511025	0
34.258086302567	-4.1586040049316	0
35.243087662575	-4.3125996266539	0
35.741345841768	-4.2107877511122	0
23.73763135302	-3.6258664964621	0
32.298244037275	-4.054794544368	0
22.481198662619	-3.1762071523008	0
24.766538566249	-3.6665358437835	0
26.257735963256	-3.6525209376394	0
18.666652381996	-3.9619214440475	0
29.481173764281	-3.4056629989384	0
37.682871931237	-3.8223353454664	0
21.189483541044	-3.8111268897431	0
21.205166007569	-3.3461773849053	0
30.783794555738	-4.0164985939602	0
21.843585785419	-3.2063712345356	0
32.097201437422	-3.6103638590949	0
33.336119364067	-4.0947270050806	0
23.241019466799	-3.6456184384043	0
36.711478667541	-4.2685232435157	0
19.644771109779	-3.8406942244138	0
41.187717092502	-3.8332158940267	0
41.597543418501	-3.7946431788056	0
23.981139032334	-3.1683028483924	0
29.303527445494	-3.9678913831726	0
39.540942304942	-3.5280459824359	0
37.71101244692	-4.2227833769904	0
17.30887388245	-4.1531477855556	0
17.713983360832	-4.1270316259952	0
22.987584187919	-3.2363313303855	0
34.692161444061	-3.7676108720116	0
27.899994387514	-3.3160508513046	0
28.9314203566	-3.4633782752742	0
29.1274931545	-2.8408205324796	0
39.67856174968	-4.0309696275465	0
30.552365468357	-3.5647030315173	0
33.014089573016	-3.717123855098	0
25.486319914787	-3.2855131624354	0
25.048077542089	-3.2931431989722	0
33.828812015073	-3.7553078680802	0
27.277291470494	-3.3714703712758	0
26.613474482559	-3.330042971887	0
12.834818706395	-4.1760001669863	0
14.293086374222	-4.2841362577839	0
11.380454911248	-4.0406109257553	0
9.8044297365486	-3.8379797340269	0
8.3603153037629	-3.6570014707219	0
43.702579007508	-3.5210467823391	0
44.769959492128	-3.3966846302419	0
7.25	-3.4669872981078	0
5.7537110450633	-3.20124969955	0
15.3385416668	-0.85700430583128	0
12.365393432829	-0.84620981002155	0
45.75	-3.4069872981078	0
3.25	-2.7069872981078	0
10.414995732695	-0.86335483111613	0
15.206713456701	-4.3151072240017	0
1.7485453310099	-2.5296764432863	0
43.008757450285	-0.98873207968039	0
8.271397663227	-0.83320690391837	0
44.96117059189	-0.84461940910665	0
6.3568587400439	-0.76108106941612	0
4.3090192906998	-2.9842401870594	0
16.589946838579	-3.1744343900534	0
4.4128003645353	-0.84736274814493	0
40.879207151087	-2.3573940538224	0
18.307291666806	-0.85700430582948	0
2.4037210680303	-0.86036115321625	0
0.91280399225955	-2.4376259641268	0
39.044578950444	-2.116726890856	0
20.52472189286	-2.02004361611	0
37.252451905284	-1.8480290418785	0
22.473397459625	-1.8225386608198	0
17.425137439823	-2.4782998162769	0
16.576928470632	-2.1750664826984	0
15.83200608987	-2.7340456173385	0
46.699980919495	-1.4465237035061	0
35.584299959392	-1.6538752277077	0
42.843800132156	-3.2128136884493	0
24.153397459624	-1.6225386608251	0
33.045633716719	-1.527763160113	0
2.2766773240736	-2.5315851378726	0
1.9987008488979	-2.0302867339576	0
2.545178414838	-2.0772328232804	0
40.074238414732	-0.78961467633063	0
18.864115825695	-2.3858052518693	0
12.253572886536	-4.0678378395424	0
12.626716469728	-3.6490585992799	0
13.19299424592	-3.7152484784958	0
12.945861511754	-3.1971658106998	0
13.569421820049	-3.2403725569807	0
12.424384615892	-3.0925633212027	0
13.311952678643	-2.6392849217739	0
13.993777482791	-2.6877152992476	0
13.691026445462	-2.0415492661274	0
14.460914908067	-2.1158367083769	0
0.80829037686445	-1.3999999999977	0
14.225057609248	-3.3134182298057	0
4.7706112121663	-2.9550874092152	0
4.4991672713518	-2.4737435647576	0
5.0887531701535	-2.4584682784878	0
31.504523595821	-1.4487820203355	0
41.755998946046	-2.5159597756288	0
41.459728134554	-1.6418998221577	0
12.853054218954	-2.0768828045915	0
14.083257825479	-1.4354101967039	0
25.953547912441	-1.416751884539	0
6.2717208813496	-3.2144467414136	0
6.0335019121917	-2.7141568880452	0
6.5849768393959	-2.7251657224714	0
6.3088645700513	-2.1312842312753	0
6.9375446952689	-2.1621108835512	0
38.125798560996	-0.75393549618617	0
16.068946186865	-3.9094176903819	0
29.713777784716	-1.3475558815575	0
4.7809329438987	-1.9296666206766	0
4.1121578040505	-1.9629041761028	0
34.20641056069	-0.7944149160783	0
46.809802230338	-3.3093811559929	0
21.244581612284	-0.85701629263831	0
27.833649337926	-1.3521892741138	0
15.238044693057	-3.2914539958844	0
5.3345704021899	-1.8788449826601	0
23.262415335786	-0.88500170116574	0
42.305858888102	-1.7263998735869	0
9.2629801059191	-3.8017243121888	0
9.543029195811	-3.3346406530902	0
10.146104020533	-3.3715511960847	0
9.8773135527466	-2.8289070537825	0
10.508881063217	-2.8740484004926	0
9.2315558694734	-2.7978220244589	0
9.5914805925278	-2.2363220339449	0
8.9062310419361	-2.2238955666365	0
9.2799248145407	-1.6068468291225	0
8.5558469146235	-2.8103523840949	0
8.2232614109624	-2.1928795990825	0
7.8647362430765	-2.820222106425	0
10.722185298964	-3.412426407051	0
11.125676128673	-2.9090520587589	0
10.876647718461	-2.3246240613239	0
11.552657643708	-2.3646170270059	0
[...]
CELL_DATA 882
SCALARS Marker double 1
LOOKUP_TABLE default
3 3 3 3 3 3 3 3 3 3 3 3 3 3 3 3 3 3 3 3 3 3 3 3 3 3 3 3 3 3 3 3 3 3 3 3 3 3 3 3 3 3 3 3 3 3 3 3 3 3 3 3 3 3 3 3 3 3 3 3 3 3 3 3 3 3 3 3 3 3 3 3 3 3 3 3 3 3 3 3 3 3 3 3 3 3 3 3 3 3 3 3 3 3 3 3 3 3 3 3 3 3 3 3 3 3 3 3 3 3 3 3 3 3 3 3 3 3 3 3 3 3 3 3 3 3 3 3 3 3 3 3 3 3 3 3 3 3 3 3 3 3 3 3 3 3 3 3 3 3 3 3 3 3 3 3 3 3 3 3 3 3 3 3 3 3 3 3 3 3 3 3 3 3 3 3 3 3 3 3 3 3 3 3 3 3 3 3 3 3 3 3 3 3 3 3 3 3 3 3 3 3 3 3 3 3 3 3 3 3 3 3 3 3 3 3 3 3 3 3 3 3 3 3 3 3 3 3 3 3 3 3 3 3 3 3 3 3 3 3 3 3 3 3 3 3 3 3 3 3 3 3 3 3 3 3 3 3 3 3 3 3 3 3 3 3 3 3 3 3 3 3 3 3 3 3 3 3 3 2 2 2 2 2 2 2 2 2 2 2 2 2 2 2 2 2 2 2 2 2 2 2 2 2 2 2 2 2 2 2 2 2 2 2 2 2 2 2 2 2 2 2 2 2 2 2 2 2 2 2 2 2 2 2 2 2 2 2 2 2 2 2 2 2 2 2 2 2 2 2 2 2 2 2 2 2 2 2 2 2 2 2 2 2 2 2 2 2 2 2 2 2 2 2 2 2 2 2 2 2 2 2 2 2 2 2 2 2 2 2 2 2 2 2 2 2 2 2 2 2 2 2 2 2 2 2 2 2 2 2 2 2 2 2 2 2 2 2 2 2 2 2 2 2 2 2 2 2 2 2 2 2 2 2 2 2 2 2 2 2 2 2 2 2 2 2 2 2 2 2 2 2 2 2 2 2 2 2 2 2 2 2 2 2 2 2 2 2 2 2 2 2 2 2 2 2 2 2 2 2 2 2 2 2 2 2 2 2 2 2 2 2 2 2 2 2 2 2 2 2 2 2 2 2 2 2 2 2 2 2 2 2 2 2 2 2 2 2 2 2 2 2 2 2 2 2 2 2 2 2 2 2 2 2 2 2 2 2 2 2 2 2 2 2 2 2 2 2 2 2 2 2 2 2 2 2 2 2 2 2 2 2 2 2 2 2 2 2 2 2 2 2 2 2 2 2 2 2 2 2 2 2 2 2 2 2 2 2 2 2 2 2 2 2 2 2 2 2 2 2 2 2 2 2 2 2 2 2 2 2 2 2 2 2 2 2 2 2 2 2 2 2 2 2 2 2 2 2 2 2 2 2 2 2 2 2 2 2 2 2 2 2 2 2 2 2 2 2 2 2 2 2 2 2 2 2 2 2 2 2 2 2 2 2 2 2 2 2 2 2 2 2 2 2 2 2 2 2 2 2 2 2 2 2 2 2 2 2 2 2 2 2 2 2 2 2 2 2 2 2 2 2 2 2 2 2 2 2 2 2 2 2 2 2 2 2 2 2 2 2 2 2 2 2 2 2 2 2 2 2 2 2 2 2 2 2 2 2 2 2 2 2 2 2 2 2 2 2 2 2 2 2 2 2 2 2 2 2 2 2 2 2 2 2 2 2 2 2 2 2 2 2 2 2 2 2 2 2 2 2 2 2 2 2 2 2 2 2 2 2 2 2 2 2 2 2 2 2 2 2 2 2 2 2 2 2 2 2 2 2 2 2 2 2 2 2 2 2 2 2 2 2 2 2 2 2 2 2 2 2 2 2 2 2 2 2 2 2 2 2 2 2 2 2 2 2 2 2 2 2 2 2 2 2 2 2 2 2 2 2 2 2 2 2 2 2 2 2 2 2 2 2 2 2 2 2 2 2 2 2 2 2 
POINT_DATA 517
SCALARS ab-pot double 1
LOOKUP_TABLE default
-0.58883381995003 -0.58888031213657 -0.58907504931706 -0.58938550652901 -0.58982633862652 -0.59039808899564 -0.5911054538796 -0.59194515565639 -0.59293344314344 -0.59394951998735 -0.59509516864645 -0.59641121564147 -0.59780127278032 -0.59937373593088 -0.60118411808359 -0.60309594381645 -0.60525945894986 -0.60759325508903 -0.61006780767392 -0.61278776602082 -0.61585953787948 -0.6195526120053 -0.62340639119781 -0.62767956403474 -0.63338252215411 -0.63849747657621 -0.64437432424411 -0.65202349448214 -0.64733445220421 -0.61214531335746 -0.66074102197725 0.8766532544267 1 -0.94347022165841 0.71147169946316 -0.55356851976998 0.62400964552047 0.60823937703418 0.59233664535458 0.5861412969813 0.5772470319797 0.56804271103998 0.55953965966096 0.55235910019429 0.54583673324235 0.53996061363213 0.53475171015606 0.52989551269632 0.52540692265753 0.52133022101017 0.51762124732519 0.51418874190772 0.51091654501249 0.50803596514943 0.50547104902003 0.50297715464581 0.50061397841462 0.49841937038849 0.49643540055596 0.49469258919302 0.49292431299175 0.4912938066761 0.48979726549194 0.48830483113616 0.48692487106579 0.48569259447666 0.48455849468699 0.48352714378548 0.48253831293812 0.48162476694819 0.48080941903602 0.48003099654995 0.47930903556714 0.4786626627694 0.4780378801345 0.4774439860903 0.47692130024618 0.47642006737767 0.47594567681784 0.47553854444529 0.47515239243103 0.47479883448014 0.47447827906192 0.47419292157508 0.47393017329588 0.47368098482195 0.47340437065971 0.47269322219575 0.472155277607 0.47175092878259 0.47142764573149 0.47115069758157 0.47095407381453 0.4708354580072 0.47079986178599 0.47069840476675 0.47051332736958 -0.58855749729508 0.47432683590778 0.47732847236045 0.48214224376706 0.4924019263395 0.51345353181241 0.54866508828896 0.70015520909839 0.47065517388677 0.47060971721566 0.47060945387635 0.47062958563597 0.47088897903697 0.47128585722557 0.47181413936584 0.47246056473237 0.47319454070958 0.47399630596601 0.47487613518778 0.47585557774801 0.47695769520023 0.47821603460745 0.47966831666851 0.48132057820845 0.48328055043752 0.48539531891097 0.48790713838968 0.49072153567557 0.49388653625774 0.49744139307617 0.50128458828461 0.50523727353791 0.5091713829814 0.512290044422 0.51340528314565 0.51119149787171 0.50112126972085 0.43652693580681 -0.49800076549135 -0.56590577191987 -0.6054527120914 -0.62912536377604 -0.64181100986901 -0.64402055291418 -0.63696604546669 -0.6324107103703 -0.62499838697207 -0.61803464644381 -0.61229336393819 -0.6071582853556 -0.60308847383994 -0.59952533832464 -0.59653704829112 -0.59408726143046 -0.59210227937308 -0.59056444987425 -0.58948127497713 -0.58881125883365 -0.58866521373795 -0.58870556073707 0.47387184198333 0.47488278271021 0.47558416781437 0.47640251103762 0.4783037396375 0.4794298332697 0.48070461605004 0.48374627762971 0.4855871520726 0.48764176259331 0.48992352494144 0.49559630470946 0.49924996570551 0.50346907014086 0.50820734988318 0.51876648595826 0.52492319758678 0.53198329062317 0.54015351719444 0.55969354736807 0.58078834816545 0.53324348402321 -0.77067766457337 0.48506247597631 0.4875837733512 0.48300871544788 0.48122599933424 0.49206893048479 0.47897248623602 0.49728128362338 0.50195256189998 0.47776436390524 0.47670376646966 0.50651022271435 0.51587037341529 0.52312112728055 0.48000598968714 0.48882316421891 0.49376481540958 0.48460226285649 0.5369706039292 0.54888023050545 0.47571581834012 0.51084706569852 0.48900762651626 0.52933802393396 0.47778352463294 0.47696699032872 0.49376295708413 0.50597538906796 0.50194077971323 0.49897015411114 0.56296613144057 0.47883343227435 0.48668781023525 0.47463054643467 0.4911729483374 0.47613166228224 0.48131584873386 0.48288772421264 0.48210877253873 0.48377652388344 0.48563063404009 0.51576401897424 0.48811913693255 0.48977595870913 0.479478308434 0.48045999342586 0.55672942322568 0.59483074937071 0.52051453342595 0.47847749150169 0.49277268980755 0.54255047902258 0.49918936869437 0.57161736569162 0.47504406411408 0.51259022678296 0.50422939828166 0.47617978211095 0.4820961369057 0.48042803093105 0.47967398012896 0.52752584620577 0.48626829973311 0.53860804588564 0.51931648927629 0.50958248647914 0.60665103827309 0.49483695834186 0.47721359240743 0.55603667437939 0.55382406159635 0.49047634779545 0.54551396296481 0.48685338799116 0.48390778387859 0.53200911825674 0.47836709417697 0.58081233119289 0.4743493732655 0.4741333314142 0.52506813280775 0.49542698025195 0.47545578081339 0.47719998978795 -0.6773195067426 0.53049722052358 0.53391659427962 0.48135537543735 0.5012352050522 0.49688438697058 0.49613123748461 0.47536490818073 0.49125222221802 0.48465782742276 0.51425598410498 0.51714005725221 0.48294318930226 0.50415911355489 0.50762218210459 -0.64187167428407 -0.67478175172145 -0.62630552755361 -0.61424295123974 -0.60655545802899 0.47237835798791 0.4715373573955 -0.60186747929096 -0.59691042548983 -0.64853269702708 -0.62986623358125 0.47102069409635 -0.59142754327721 -0.6156093905124 -0.71919845307555 -0.58955351249219 0.47218567047377 -0.60466877833742 0.47111738477736 -0.59780184820091 -0.5934273870508 -0.69429747415931 -0.59296222378682 0.4741725458824 -0.58470714564243 -0.58989339725084 -0.58899535319736 0.47568584255196 0.52759006557735 0.47759101444297 0.52442992057979 -0.61045749775434 -0.66433835593543 -0.69755420089736 0.47065577104503 0.47987174799514 0.4730447747673 0.51872703753266 0.48464275915244 -0.59004937869587 -0.58969986716745 -0.59030050056148 0.47447831042075 0.4902932743054 -0.63487131901685 -0.63911896903553 -0.646747344501 -0.64297888360722 -0.65389360668769 -0.63513115297195 -0.6466486504898 -0.66192733916498 -0.65007079601089 -0.66094614283878 -0.58877110144889 -0.66657427520918 -0.59434377589611 -0.59359205697438 -0.59489079816148 0.48851242927569 0.47356486015461 0.47349382120761 -0.63743638555727 -0.64864777885799 0.50955398302664 -0.59838189522728 -0.59749000947728 -0.59914785742237 -0.59805707582968 -0.60008396178194 0.4763846188573 0.86717557865242 0.49396693387778 -0.59405945203794 -0.59269148820949 0.48215226284382 0.47073459102584 0.50109801335521 0.50108130928899 -0.69154131700759 -0.59537703600733 0.51473693583206 0.47287587925155 -0.61118195572846 -0.61220571804766 -0.61597135585507 -0.61378170936574 -0.61790936933259 -0.61014777657434 -0.61170042253403 -0.60814748274147 -0.609738892973 -0.60676584898984 -0.60498573905088 -0.6037859919761 -0.62014575010495 -0.62262831238803 -0.6199493732921 -0.62538861150138 -0.62231965638268 -0.63383019687493 -0.64465732635785 -0.59119668431876 -0.6275363147644 -0.59529578316463 -0.60088542480998 0.4715915885225 0.47143332548166 0.4710536800509 0.47130147836548 0.4717589780155 0.47090891372575 0.47193429845352 0.47233188724772 -0.60397631048058 -0.6562051002224 -0.66923576787287 0.47290057481159 -0.58909707413324 0.51224153778694 0.48050926215886 0.47662005234714 -0.63757103153859 0.47895806320385 0.47755547771676 -0.58921094124088 -0.62188138486455 0.51416829578725 0.47537243338292 0.51856170790058 0.2829382575728 0.47120181083841 0.47075700153728 0.49106447824688 0.47066851436317 -0.61336434383874 -0.52654466323955 -0.42737517312935 0.4972789151068 0.47190653922229 0.47208420951368 0.47160678968822 -0.59242230301781 -0.59164710833814 0.50522051346646 0.48652791700801 0.47487534280282 -0.50029946023112 0.48121896647833 0.52437001341842 0.47858260358556 -0.60329588050324 -0.61780355196353 -0.68780619809463 0.4736633466412 -0.63263921871085 -0.60132501951334 -0.60849387754874 -0.61054539304792 -0.59067090245182 0.47084435871228 0.51401731008017 -0.59556443444194 -0.59874960825645 -0.60003202951985 -0.62474820924007 -0.62935456033886 -0.6289312888758 -0.602336441543 -0.60625022081397 0.48298981836666 -0.6499095035694 -0.59072266716711 -0.61557287433135 -0.65776696753406 -0.59202193956005 0.4712766259622 -0.59652124844634 0.47423230014412 -0.61840551909907 -0.58573244204367 0.48784898020138 0.48938435708036 -0.62176336480562 -0.58936834853825 0.48668471573939 0.48429700767026 0.47284797946396 -0.58998899803796 0.47295601935312 -0.68991195549776 0.49237085748751 -0.64582178056435 -0.60874463668003 0.47083368566631 0.50695772390271 -0.60106113040744 0.49558073605639 0.47088251055326 0.51091679508546 -0.60567073400316 0.49917447867743 0.50309130494716 0.47505209361553 -0.65281634742688 0.84650063008396 -0.5887726203828 -0.59455343795376 -0.58884669122801 -0.59095760530138 -0.61731266619329 -0.63050160553733 -0.5962879673782 0.47599171623467 0.47254856533424 0.47064400569777 -0.64113545340678 -0.67141236490826 -0.63909415912954 -0.59324338621047 -0.5888930498512 -0.58924496530903 -0.63454819257296 0.47102329768961 -0.6027355840774 -0.59646226702588 0.53406744924974 -0.6412593363387 -0.61946010221274 -0.54813672567495 0.47246115473369 -0.60034137438978 -0.79168431297829 0.47697347176202 -0.78762659034976 -0.63362438153474 0.50783931541038 -0.60765373287613 -0.69883828699532 
SCALARS mn-pot double 1
LOOKUP_TABLE default
0.65620738510665 0.65628670420195 0.65647832966503 0.65674651297689 0.65721329449813 0.65776531872268 0.65834797873984 0.65926332503706 0.66023960553655 0.66113784159506 0.6623459001367 0.66346149268075 0.6648164602343 0.66649095904232 0.66805368693821 0.66992381174334 0.67222281845043 0.67448321203456 0.67679245802348 0.67958680385798 0.68306122807513 0.68662494409509 0.69099266493636 0.6964647962833 0.70228736590765 0.70995370150547 0.71876390576613 0.72824760698106 0.7416928913328 0.75791658084212 0.77738146543589 0.80454978070818 0.83373648056824 0.86177424118223 0.99857835577948 -1 -0.8391324385754 -0.77151855944219 -0.73502577138852 -0.71015760419092 -0.69283474295953 -0.67791820602914 -0.66508427695425 -0.65457565564529 -0.64542683658349 -0.63702810330135 -0.6298780332302 -0.62321660077794 -0.6169662092515 -0.61145728786782 -0.60649224563013 -0.60198474279697 -0.59753552258028 -0.59368208943708 -0.59051550699002 -0.58724256850436 -0.58423392475128 -0.58140074020657 -0.57888054958182 -0.57676575974278 -0.57447730247397 -0.57245002258087 -0.57064448256334 -0.56873509418615 -0.56703604699973 -0.565535006686 -0.56413098411168 -0.56292033711744 -0.56168947895898 -0.56058107613505 -0.55962015797044 -0.5586736294315 -0.5577987309344 -0.55705418547575 -0.556303119878 -0.55557415580194 -0.55498189973193 -0.554381125288 -0.55379637257042 -0.55334078464192 -0.55287843986313 -0.55244398356683 -0.55209803873692 -0.55175310780068 -0.55143809890211 -0.55116240343985 -0.55085614058407 -0.54991919232205 -0.54935157436359 -0.54883750966955 -0.54841893080706 -0.54812274349662 -0.54789888728187 -0.54773740745132 -0.54763148973922 -0.54762406137759 -0.54760379186737 0.65617768432245 -0.55193820117222 -0.55548093027941 -0.56126432914128 -0.5739525591028 -0.60138598453629 -0.65345049249292 -0.75639721971731 -0.54762475336968 -0.54761100925681 -0.54758456163455 -0.54769427325722 -0.54798620668483 -0.54846275471223 -0.54909013972403 -0.54983561472742 -0.55067608273189 -0.55160848682648 -0.55264716140344 -0.55381793538201 -0.55515149318249 -0.55668196192893 -0.55844461747584 -0.56048519465096 -0.56281879159447 -0.56555410774652 -0.56865739597418 -0.57221417721809 -0.57626914333916 -0.58086977904082 -0.58606855385523 -0.59186221429824 -0.59810656580447 -0.60469013038354 -0.61122796764553 -0.6166199510031 -0.61907479501524 -0.61723301332333 -0.60003593190955 -0.50256596862554 0.60658760638756 0.65616323213505 0.67902690418361 0.68899850638447 0.69225994528059 0.69017406569096 0.68650373322357 0.68215045675608 0.67768632471129 0.67354434298229 0.66979149318353 0.66653812744867 0.66375995210238 0.66143442419282 0.65954446488713 0.65807440273499 0.65701820057558 0.65638479205661 0.65617362107107 0.65619925875939 -0.55139754224303 -0.55259080199522 -0.55341072268167 -0.55437635489546 -0.5566437845151 -0.55799218079393 -0.5595311834797 -0.56322388757747 -0.56546294334373 -0.56799735731478 -0.57083139331975 -0.57800234466551 -0.58271815717069 -0.58815833613973 -0.59438059783702 -0.60868359724056 -0.61731837441949 -0.62744354153498 -0.6393427104552 -0.67402120798688 -0.70043200248611 -0.73681166666177 0.8552926780985 -0.56475242664535 -0.56784186497271 -0.56227034891027 -0.56011501338829 -0.57341142698069 -0.55740986818251 -0.57991259955501 -0.58593414918691 -0.55597268214685 -0.55472461708829 -0.59180614375677 -0.60419598253825 -0.61395571629943 -0.55868092618198 -0.56945270369282 -0.57562038647274 -0.56426071837927 -0.63300560882669 -0.64994577977784 -0.55353849349064 -0.59769064786547 -0.56963843716917 -0.62270261818014 -0.55601902067266 -0.55504174691762 -0.57556464104346 -0.59132614589454 -0.58607343322252 -0.58217206076125 -0.67040955721816 -0.55727158587232 -0.56681932482664 -0.55227097653889 -0.57238276014633 -0.55405218308182 -0.56026743514465 -0.56216928182053 -0.56117739460555 -0.56320201727973 -0.56545870131216 -0.60432976456639 -0.56853389868478 -0.57058999723499 -0.55803017197033 -0.55920814812267 -0.78046838534179 -0.72086184553888 -0.61063630734315 -0.55683500227767 -0.5743238802851 -0.64088868909862 -0.58243332625719 -0.68589368143892 -0.55275127245943 -0.59984575463478 -0.58886728951018 -0.55407789417828 -0.56115916249657 -0.55915454445038 -0.5582478461887 -0.61993416927506 -0.56624718057723 -0.63595195724753 -0.60874925406992 -0.59578150026165 -0.74788287063609 -0.57692925065262 -0.55532193728978 -0.66027522266411 -0.65833626132624 -0.57146031611989 -0.6460988446505 -0.5669578777716 -0.56336499427065 -0.62619467409045 -0.55670070178751 -0.7022770629652 -0.55194185208399 -0.55167699993865 -0.61670397360124 -0.57765281074981 -0.55325058184907 -0.55529612832354 -0.62750162357467 -0.83384800779555 -0.62896158613395 -0.56026860350606 -0.58505699226664 -0.57950740411971 -0.5786282174833 -0.55314082541123 -0.57240893646493 -0.5642647387047 -0.60205912478381 -0.60594797852444 -0.56219147477813 -0.58883042984905 -0.59327143217655 0.71427285366135 0.74854118681978 0.69436082984458 0.68120803119092 0.67340438143565 -0.54957202722433 -0.54857141838588 0.66873302008237 0.6639635209317 0.68993593518505 0.68972067439548 -0.54800240113023 0.6586930331912 0.68042584799733 0.78516462912546 0.6569256996483 -0.54954881597359 0.67119909209121 -0.54825453035501 0.66493016071935 0.66062263673374 0.76604998660333 0.66040400908565 -0.55175970912252 0.5029969954675 0.6574434631794 0.6564074302164 -0.55354292618059 -0.64780865801573 -0.5558031500233 -0.62790882359188 0.62471370478286 0.67714517492069 0.73304263081006 -0.54766986168524 -0.55857165045577 -0.55037497621985 -0.61121693285732 -0.56439651229788 0.65743111513632 0.65710808734272 0.65767270168014 -0.55215929988226 -0.67859888162673 0.70488560420689 0.70838808423492 0.71786697995921 0.70991382953633 0.72000782385395 0.70258520452822 0.70945227967289 0.71865268952595 0.70603156294267 0.7130681051192 0.65633981020879 0.73372386824319 0.66156724224201 0.66085295106144 0.66210337916738 -0.56914084143243 -0.55103271554228 -0.55097978304165 0.69968286347424 0.70081270486185 -0.59724538792502 0.6654446859338 0.66454728369819 0.66616754415136 0.66511737251819 0.66703621470758 -0.55445966747079 0.83463292963401 -0.57606437178466 0.66128960229095 0.65999086292847 -0.56146056705717 -0.54768167819306 -0.62257827741157 -0.58542219693781 0.75832060794256 0.66250312272688 -0.61602305592907 -0.55025140734578 0.67790455444909 0.67907436177185 0.68287434765979 0.68038007512057 0.68448301574885 0.67678567760251 0.67799275770606 0.6746485242273 0.67579445594939 0.67357873189469 0.67169861796521 0.67069067187686 0.68712267811456 0.68913977688752 0.68571661679295 0.6906813849596 0.68651776321092 0.64229761202413 0.66990392325751 0.65867350298858 0.69153724138174 0.66257980620587 0.66785219639575 -0.54881535927684 -0.5485706109703 -0.548114150707 -0.54839985592798 -0.54893263219733 -0.54798736961435 -0.54914478033359 -0.54961538721459 0.67090657859765 0.72974892863671 0.70259075180026 -0.55033724688609 0.65661582106548 -0.62167785613683 -0.55944653958679 -0.55464203060018 0.69333761934245 -0.55757435858093 -0.55592114986904 0.6566470318308 0.6854735455346 -0.60426208872616 -0.55321884775805 -0.6362856417659 -0.62544967644893 -0.54823167143599 -0.54784149455672 -0.57240675584175 -0.5477083897646 0.67914809294282 -0.59448510072145 -0.64456337927001 -0.58037307228419 -0.54904337727658 -0.54925562290286 -0.5487112845763 0.65976306906144 0.65897533088181 -0.59109262172451 -0.56708022113598 -0.55259104284406 0.76215762883114 -0.56023352356855 -0.61912341691766 -0.55701640762278 0.66997643475588 0.68490644561477 0.73111349552223 -0.55120647998837 0.69696955593881 0.66826963903687 0.6754029147915 0.67632146218484 0.65799141336789 -0.54780500559182 -0.60814398255327 0.66270740000913 0.66576663613143 0.66701836916398 0.69204862327694 0.69787430457487 0.69579506967614 0.66915689928461 0.67271575352197 -0.56236825451174 0.72390817728641 0.65814576154453 0.68165499836948 0.70304632958149 0.65936851868372 -0.54824938329197 0.66370034336128 -0.55185515971223 0.62897249769713 -0.57829508882669 0.76601878454122 -0.57050676047281 0.68912171980462 0.65684220988831 -0.56669839103519 -0.56414201040762 -0.55008547758205 0.6573910886603 -0.55032179022213 0.72308848091091 -0.57421476440605 0.69352233243499 0.67551272601879 -0.54783123030435 -0.5942334567813 0.66786975085463 -0.5783095801927 -0.54780597939097 -0.60091104590243 0.67250125378 -0.58306021857043 -0.58845316512166 -0.55281656525956 0.73519894823153 0.81278142879949 0.65627135693488 0.66178057645705 0.65625606175129 0.6582672804274 0.68267629487465 0.69922906529042 0.66337469012824 -0.55389720816488 -0.54976120266649 -0.5476346346223 0.69822897361838 0.74328805633448 0.70349529686025 0.66050151824376 0.65634105365802 0.65661737350097 0.69402842110999 -0.54798006801764 0.66955999003601 0.66357603595214 -0.66870603219081 0.67851387941007 0.68359029224589 -0.61346877454798 -0.54971105648447 -0.68078480348809 0.76456405855151 -0.55501226973885 0.78521548839778 0.70178927294533 -0.63126947653931 0.67375919314619 0.74666555387425 
